                         Program Version 5.0.4 -  RELEASE  -
|  1> %maxcore 8000
|  2> %pal
|  3>  nprocs 8
|  4> end
|  5> ! RI-SOS-wPBEPP86 def2-SVP def2/J def2-SVP/C RIJCOSX CPCM TIGHTSCF
|  6>
|  7> %TDDFT
|  8>     DCORR     1
|  9>     NROOTS    40
| 10>     doscs     TRUE
| 11>     TDA       FALSE
| 12> END
| 13>
| 14> %CPCM
| 15>     SMD		TRUE
| 16>     SMDsolvent	"CH2Cl2"
| 17> END
| 18>
| 19> * xyz 1 1
| 20> P                   1.07487500    0.85270200    1.68391100
| 21> P                   0.10875700   -1.86934500   -0.81293200
| 22> O                   2.22924000    0.03164000   -0.85901900
| 23> C                   2.22520100   -0.26498900    2.55824600
| 24> C                   1.78108400   -0.85877800    3.75066600
| 25> H                   0.79277400   -0.60730000    4.15008500
| 26> C                   2.59700600   -1.74731900    4.44460300
| 27> H                   2.24616600   -2.18691600    5.38128800
| 28> C                   3.85931600   -2.07263100    3.94645300
| 29> H                   4.50025600   -2.77076200    4.48961400
| 30> C                   4.29938400   -1.50220400    2.75387600
| 31> H                   5.28565700   -1.75404100    2.35743100
| 32> C                   3.49082900   -0.60009700    2.06277800
| 33> H                   3.85918600   -0.14907800    1.13792400
| 34> C                   2.12906900    1.88854900    0.59682100
| 35> C                   2.40615400    3.24236100    0.82726200
| 36> H                   2.08322100    3.71204100    1.75926000
| 37> C                   3.06702500    4.00083900   -0.13702700
| 38> H                   3.27249500    5.05572400    0.05444300
| 39> C                   3.46935800    3.42566600   -1.34299900
| 40> H                   3.98684300    4.03944500   -2.08300700
| 41> C                   3.22571100    2.07572400   -1.60828300
| 42> C                   3.67945600    1.32589500   -2.85682100
| 43> C                   2.56904100    0.34396900   -3.21264200
| 44> C                   2.18223400   -0.01580000   -4.50715500
| 45> H                   2.65598700    0.46066100   -5.36778200
| 46> C                   1.20427200   -0.98894200   -4.71812700
| 47> H                   0.92632200   -1.26245200   -5.73770200
| 48> C                   0.58080000   -1.61779500   -3.64109100
| 49> H                  -0.18940700   -2.37334800   -3.81716700
| 50> C                   0.92742600   -1.27086600   -2.33058600
| 51> C                  -1.20973700   -2.96774500   -1.42849000
| 52> C                  -2.39960500   -2.35615300   -1.85457800
| 53> H                  -2.48256000   -1.26381400   -1.82232700
| 54> C                  -3.46181800   -3.12465500   -2.32161900
| 55> H                  -4.38008800   -2.63735300   -2.65826600
| 56> C                  -3.35339300   -4.51634700   -2.35156100
| 57> H                  -4.18771400   -5.12234500   -2.71147300
| 58> C                  -2.17901900   -5.13202800   -1.92083100
| 59> H                  -2.09225200   -6.22052800   -1.94428000
| 60> C                  -1.10854400   -4.36385700   -1.46209100
| 61> H                  -0.18997000   -4.85451200   -1.12809000
| 62> C                   1.33725000   -2.97717700   -0.04749900
| 63> C                   1.15269500   -3.33042300    1.29655000
| 64> H                   0.30833700   -2.91251300    1.85543500
| 65> C                   2.04034200   -4.19783400    1.92690600
| 66> H                   1.88388300   -4.46939800    2.97322300
| 67> C                   3.13762000   -4.70138900    1.22787100
| 68> H                   3.83992100   -5.37471600    1.72457000
| 69> C                   3.34144900   -4.33763200   -0.10253400
| 70> H                   4.20153400   -4.72787900   -0.65127100
| 71> C                   2.44372200   -3.48302900   -0.74149800
| 72> H                   2.60327400   -3.21270300   -1.78955800
| 73> C                   1.92075600   -0.29901500   -2.15722900
| 74> C                   2.55090600    1.34553200   -0.62492300
| 75> C                   4.00452800    2.26808500   -4.00665200
| 76> H                   3.13734400    2.87515400   -4.30420200
| 77> H                   4.34699100    1.71013000   -4.88783700
| 78> H                   4.82274200    2.94965300   -3.73971800
| 79> C                   4.93789200    0.51192800   -2.49446700
| 80> H                   5.28147100   -0.07320700   -3.35946500
| 81> H                   4.74571800   -0.19083400   -1.67074600
| 82> H                   5.75541000    1.17883100   -2.18514300
| 83> C                   0.53586600    2.01924500    2.97919900
| 84> C                   1.37006800    2.42906900    4.02952400
| 85> H                   2.38355600    2.02482200    4.11154500
| 86> C                   0.91135200    3.34940100    4.96887800
| 87> H                   1.56517300    3.66351900    5.78541600
| 88> C                  -0.37965700    3.87106100    4.86716400
| 89> H                  -0.73625200    4.59169100    5.60633400
| 90> C                  -1.21553900    3.46725100    3.82713900
| 91> H                  -2.22848800    3.86842200    3.75057200
| 92> C                  -0.76155800    2.54046700    2.88973100
| 93> H                  -1.41564800    2.20293100    2.07845700
| 94> Cu                 -0.57420500   -0.05806300    0.40885600
| 95> C                  -3.45009100    0.51421500    0.26166900
| 96> C                  -4.82608100    0.32649600    0.32288400
| 97> C                  -5.35077600   -0.71324000    1.10358800
| 98> C                  -4.45369000   -1.53507700    1.80181400
| 99> C                  -3.09629200   -1.27282300    1.67763000
|100> C                  -2.82797500    1.57315800   -0.56482400
|101> C                  -3.56216300    2.60763100   -1.13297700
|102> C                  -2.90977500    3.57537400   -1.91020400
|103> C                  -1.52337800    3.45829500   -2.08821500
|104> C                  -0.87307500    2.39327000   -1.47895700
|105> H                  -5.52069800    0.95406000   -0.23505700
|106> H                  -4.79008100   -2.36345300    2.42416600
|107> H                  -2.37206400   -1.90144600    2.20578300
|108> H                  -4.63713700    2.70477500   -0.98269500
|109> H                  -0.95145100    4.17205600   -2.68016100
|110> H                   0.21039200    2.27968300   -1.59798800
|111> N                  -2.58876900   -0.28351800    0.93788900
|112> N                  -1.48769400    1.47034800   -0.73413600
|113> O                  -3.66833200    4.54483700   -2.42205100
|114> O                  -6.67717800   -0.84549500    1.11535500
|115> C                  -3.05160000    5.54482300   -3.21037900
|116> H                  -3.84570900    6.22913800   -3.52103800
|117> H                  -2.30018200    6.10425000   -2.63294200
|118> H                  -2.57747100    5.11447900   -4.10535800
|119> C                  -7.24831500   -1.88735300    1.88406800
|120> H                  -8.33107500   -1.81328900    1.75171800
|121> H                  -6.90958400   -2.87464400    1.53541800
|122> H                  -7.00834700   -1.77574900    2.95216800
|123> *
|124>
|125>                          ****END OF INPUT****

CARTESIAN COORDINATES (ANGSTROEM)
---------------------------------
  P      1.074875    0.852702    1.683911
  P      0.108757   -1.869345   -0.812932
  O      2.229240    0.031640   -0.859019
  C      2.225201   -0.264989    2.558246
  C      1.781084   -0.858778    3.750666
  H      0.792774   -0.607300    4.150085
  C      2.597006   -1.747319    4.444603
  H      2.246166   -2.186916    5.381288
  C      3.859316   -2.072631    3.946453
  H      4.500256   -2.770762    4.489614
  C      4.299384   -1.502204    2.753876
  H      5.285657   -1.754041    2.357431
  C      3.490829   -0.600097    2.062778
  H      3.859186   -0.149078    1.137924
  C      2.129069    1.888549    0.596821
  C      2.406154    3.242361    0.827262
  H      2.083221    3.712041    1.759260
  C      3.067025    4.000839   -0.137027
  H      3.272495    5.055724    0.054443
  C      3.469358    3.425666   -1.342999
  H      3.986843    4.039445   -2.083007
  C      3.225711    2.075724   -1.608283
  C      3.679456    1.325895   -2.856821
  C      2.569041    0.343969   -3.212642
  C      2.182234   -0.015800   -4.507155
  H      2.655987    0.460661   -5.367782
  C      1.204272   -0.988942   -4.718127
  H      0.926322   -1.262452   -5.737702
  C      0.580800   -1.617795   -3.641091
  H     -0.189407   -2.373348   -3.817167
  C      0.927426   -1.270866   -2.330586
  C     -1.209737   -2.967745   -1.428490
  C     -2.399605   -2.356153   -1.854578
  H     -2.482560   -1.263814   -1.822327
  C     -3.461818   -3.124655   -2.321619
  H     -4.380088   -2.637353   -2.658266
  C     -3.353393   -4.516347   -2.351561
  H     -4.187714   -5.122345   -2.711473
  C     -2.179019   -5.132028   -1.920831
  H     -2.092252   -6.220528   -1.944280
  C     -1.108544   -4.363857   -1.462091
  H     -0.189970   -4.854512   -1.128090
  C      1.337250   -2.977177   -0.047499
  C      1.152695   -3.330423    1.296550
  H      0.308337   -2.912513    1.855435
  C      2.040342   -4.197834    1.926906
  H      1.883883   -4.469398    2.973223
  C      3.137620   -4.701389    1.227871
  H      3.839921   -5.374716    1.724570
  C      3.341449   -4.337632   -0.102534
  H      4.201534   -4.727879   -0.651271
  C      2.443722   -3.483029   -0.741498
  H      2.603274   -3.212703   -1.789558
  C      1.920756   -0.299015   -2.157229
  C      2.550906    1.345532   -0.624923
  C      4.004528    2.268085   -4.006652
  H      3.137344    2.875154   -4.304202
  H      4.346991    1.710130   -4.887837
  H      4.822742    2.949653   -3.739718
  C      4.937892    0.511928   -2.494467
  H      5.281471   -0.073207   -3.359465
  H      4.745718   -0.190834   -1.670746
  H      5.755410    1.178831   -2.185143
  C      0.535866    2.019245    2.979199
  C      1.370068    2.429069    4.029524
  H      2.383556    2.024822    4.111545
  C      0.911352    3.349401    4.968878
  H      1.565173    3.663519    5.785416
  C     -0.379657    3.871061    4.867164
  H     -0.736252    4.591691    5.606334
  C     -1.215539    3.467251    3.827139
  H     -2.228488    3.868422    3.750572
  C     -0.761558    2.540467    2.889731
  H     -1.415648    2.202931    2.078457
  Cu    -0.574205   -0.058063    0.408856
  C     -3.450091    0.514215    0.261669
  C     -4.826081    0.326496    0.322884
  C     -5.350776   -0.713240    1.103588
  C     -4.453690   -1.535077    1.801814
  C     -3.096292   -1.272823    1.677630
  C     -2.827975    1.573158   -0.564824
  C     -3.562163    2.607631   -1.132977
  C     -2.909775    3.575374   -1.910204
  C     -1.523378    3.458295   -2.088215
  C     -0.873075    2.393270   -1.478957
  H     -5.520698    0.954060   -0.235057
  H     -4.790081   -2.363453    2.424166
  H     -2.372064   -1.901446    2.205783
  H     -4.637137    2.704775   -0.982695
  H     -0.951451    4.172056   -2.680161
  H      0.210392    2.279683   -1.597988
  N     -2.588769   -0.283518    0.937889
  N     -1.487694    1.470348   -0.734136
  O     -3.668332    4.544837   -2.422051
  O     -6.677178   -0.845495    1.115355
  C     -3.051600    5.544823   -3.210379
  H     -3.845709    6.229138   -3.521038
  H     -2.300182    6.104250   -2.632942
  H     -2.577471    5.114479   -4.105358
  C     -7.248315   -1.887353    1.884068
  H     -8.331075   -1.813289    1.751718
  H     -6.909584   -2.874644    1.535418
  H     -7.008347   -1.775749    2.952168

 Total Charge           Charge          ....    1
 Multiplicity           Mult            ....    1
 Number of Electrons    NEL             ....  446
 Basis Dimension        Dim             .... 1071

ORBITAL ENERGIES
----------------

  NO   OCC          E(Eh)            E(eV)
   0   2.0000    -326.662147     -8888.9289
   1   2.0000     -78.915286     -2147.3941
   2   2.0000     -78.911579     -2147.2932
   3   2.0000     -40.117674     -1091.6574
   4   2.0000     -35.071515      -954.3444
   5   2.0000     -35.071261      -954.3375
   6   2.0000     -35.070910      -954.3280
   7   2.0000     -20.131777      -547.8135
   8   2.0000     -20.115340      -547.3662
   9   2.0000     -20.115293      -547.3650
  10   2.0000     -15.172865      -412.8746
  11   2.0000     -15.172842      -412.8740
  12   2.0000     -10.981795      -298.8298
  13   2.0000     -10.981695      -298.8271
  14   2.0000     -10.963871      -298.3421
  15   2.0000     -10.961849      -298.2871
  16   2.0000     -10.953181      -298.0512
  17   2.0000     -10.952703      -298.0382
  18   2.0000     -10.941394      -297.7305
  19   2.0000     -10.941090      -297.7222
  20   2.0000     -10.929832      -297.4158
  21   2.0000     -10.929718      -297.4127
  22   2.0000     -10.910868      -296.8998
  23   2.0000     -10.905344      -296.7495
  24   2.0000     -10.903201      -296.6912
  25   2.0000     -10.902876      -296.6823
  26   2.0000     -10.902096      -296.6611
  27   2.0000     -10.900488      -296.6174
  28   2.0000     -10.899974      -296.6034
  29   2.0000     -10.899809      -296.5989
  30   2.0000     -10.899213      -296.5827
  31   2.0000     -10.899203      -296.5824
  32   2.0000     -10.899087      -296.5792
  33   2.0000     -10.898327      -296.5585
  34   2.0000     -10.898111      -296.5527
  35   2.0000     -10.897250      -296.5293
  36   2.0000     -10.897148      -296.5265
  37   2.0000     -10.897047      -296.5237
  38   2.0000     -10.896122      -296.4986
  39   2.0000     -10.895764      -296.4888
  40   2.0000     -10.895362      -296.4779
  41   2.0000     -10.894852      -296.4640
  42   2.0000     -10.894021      -296.4414
  43   2.0000     -10.893345      -296.4230
  44   2.0000     -10.892700      -296.4054
  45   2.0000     -10.892596      -296.4026
  46   2.0000     -10.892337      -296.3956
  47   2.0000     -10.891929      -296.3845
  48   2.0000     -10.890453      -296.3443
  49   2.0000     -10.888841      -296.3004
  50   2.0000     -10.888778      -296.2987
  51   2.0000     -10.888667      -296.2957
  52   2.0000     -10.888608      -296.2941
  53   2.0000     -10.888508      -296.2914
  54   2.0000     -10.888068      -296.2794
  55   2.0000     -10.887836      -296.2731
  56   2.0000     -10.887511      -296.2642
  57   2.0000     -10.886649      -296.2408
  58   2.0000     -10.886601      -296.2395
  59   2.0000     -10.886469      -296.2359
  60   2.0000     -10.886154      -296.2273
  61   2.0000     -10.868918      -295.7583
  62   2.0000     -10.867101      -295.7089
  63   2.0000      -7.217967      -196.4109
  64   2.0000      -7.214568      -196.3184
  65   2.0000      -5.211132      -141.8021
  66   2.0000      -5.210967      -141.7976
  67   2.0000      -5.210046      -141.7726
  68   2.0000      -5.207662      -141.7077
  69   2.0000      -5.207560      -141.7049
  70   2.0000      -5.206644      -141.6800
  71   2.0000      -4.779270      -130.0505
  72   2.0000      -3.159291       -85.9687
  73   2.0000      -3.157058       -85.9079
  74   2.0000      -3.154984       -85.8515
  75   2.0000      -1.372754       -37.3545
  76   2.0000      -1.353958       -36.8431
  77   2.0000      -1.353903       -36.8416
  78   2.0000      -1.227498       -33.4019
  79   2.0000      -1.197980       -32.5987
  80   2.0000      -1.113811       -30.3083
  81   2.0000      -1.111256       -30.2388
  82   2.0000      -1.101216       -29.9656
  83   2.0000      -1.098136       -29.8818
  84   2.0000      -1.094033       -29.7702
  85   2.0000      -1.091697       -29.7066
  86   2.0000      -1.054888       -28.7049
  87   2.0000      -1.044737       -28.4287
  88   2.0000      -1.035681       -28.1823
  89   2.0000      -1.034846       -28.1596
  90   2.0000      -1.006356       -27.3844
  91   2.0000      -0.996584       -27.1184
  92   2.0000      -0.985838       -26.8260
  93   2.0000      -0.976766       -26.5792
  94   2.0000      -0.969434       -26.3796
  95   2.0000      -0.967107       -26.3163
  96   2.0000      -0.966260       -26.2933
  97   2.0000      -0.965359       -26.2687
  98   2.0000      -0.963302       -26.2128
  99   2.0000      -0.961642       -26.1676
 100   2.0000      -0.960178       -26.1278
 101   2.0000      -0.955222       -25.9929
 102   2.0000      -0.939109       -25.5545
 103   2.0000      -0.930099       -25.3093
 104   2.0000      -0.915956       -24.9244
 105   2.0000      -0.891881       -24.2693
 106   2.0000      -0.869530       -23.6611
 107   2.0000      -0.862330       -23.4652
 108   2.0000      -0.857927       -23.3454
 109   2.0000      -0.837125       -22.7793
 110   2.0000      -0.833931       -22.6924
 111   2.0000      -0.829559       -22.5734
 112   2.0000      -0.824471       -22.4350
 113   2.0000      -0.798200       -21.7201
 114   2.0000      -0.797074       -21.6895
 115   2.0000      -0.795331       -21.6421
 116   2.0000      -0.794497       -21.6193
 117   2.0000      -0.786115       -21.3913
 118   2.0000      -0.785030       -21.3618
 119   2.0000      -0.783561       -21.3218
 120   2.0000      -0.778532       -21.1849
 121   2.0000      -0.776331       -21.1250
 122   2.0000      -0.749897       -20.4057
 123   2.0000      -0.742470       -20.2036
 124   2.0000      -0.736310       -20.0360
 125   2.0000      -0.729283       -19.8448
 126   2.0000      -0.725262       -19.7354
 127   2.0000      -0.714474       -19.4418
 128   2.0000      -0.702709       -19.1217
 129   2.0000      -0.692430       -18.8420
 130   2.0000      -0.688077       -18.7235
 131   2.0000      -0.681753       -18.5514
 132   2.0000      -0.680939       -18.5293
 133   2.0000      -0.671418       -18.2702
 134   2.0000      -0.667917       -18.1749
 135   2.0000      -0.660900       -17.9840
 136   2.0000      -0.653851       -17.7922
 137   2.0000      -0.651083       -17.7169
 138   2.0000      -0.649814       -17.6823
 139   2.0000      -0.642862       -17.4932
 140   2.0000      -0.642310       -17.4782
 141   2.0000      -0.642015       -17.4701
 142   2.0000      -0.636314       -17.3150
 143   2.0000      -0.633934       -17.2502
 144   2.0000      -0.623637       -16.9700
 145   2.0000      -0.623093       -16.9552
 146   2.0000      -0.620740       -16.8912
 147   2.0000      -0.619598       -16.8601
 148   2.0000      -0.610180       -16.6038
 149   2.0000      -0.608860       -16.5679
 150   2.0000      -0.607601       -16.5337
 151   2.0000      -0.605011       -16.4632
 152   2.0000      -0.602739       -16.4014
 153   2.0000      -0.602387       -16.3918
 154   2.0000      -0.600264       -16.3340
 155   2.0000      -0.599214       -16.3054
 156   2.0000      -0.593567       -16.1518
 157   2.0000      -0.592033       -16.1100
 158   2.0000      -0.583943       -15.8899
 159   2.0000      -0.579276       -15.7629
 160   2.0000      -0.577577       -15.7167
 161   2.0000      -0.577173       -15.7057
 162   2.0000      -0.575806       -15.6685
 163   2.0000      -0.573390       -15.6027
 164   2.0000      -0.571101       -15.5404
 165   2.0000      -0.565395       -15.3852
 166   2.0000      -0.560349       -15.2479
 167   2.0000      -0.558951       -15.2098
 168   2.0000      -0.553947       -15.0737
 169   2.0000      -0.547943       -14.9103
 170   2.0000      -0.545134       -14.8338
 171   2.0000      -0.538471       -14.6525
 172   2.0000      -0.536970       -14.6117
 173   2.0000      -0.535547       -14.5730
 174   2.0000      -0.532331       -14.4855
 175   2.0000      -0.531350       -14.4588
 176   2.0000      -0.522467       -14.2171
 177   2.0000      -0.519909       -14.1474
 178   2.0000      -0.515824       -14.0363
 179   2.0000      -0.514081       -13.9889
 180   2.0000      -0.508837       -13.8462
 181   2.0000      -0.506278       -13.7765
 182   2.0000      -0.503703       -13.7064
 183   2.0000      -0.500846       -13.6287
 184   2.0000      -0.499732       -13.5984
 185   2.0000      -0.499212       -13.5842
 186   2.0000      -0.497462       -13.5366
 187   2.0000      -0.494598       -13.4587
 188   2.0000      -0.490212       -13.3393
 189   2.0000      -0.489822       -13.3287
 190   2.0000      -0.488826       -13.3016
 191   2.0000      -0.488649       -13.2968
 192   2.0000      -0.487235       -13.2583
 193   2.0000      -0.485902       -13.2221
 194   2.0000      -0.482042       -13.1170
 195   2.0000      -0.480705       -13.0806
 196   2.0000      -0.470517       -12.8034
 197   2.0000      -0.469466       -12.7748
 198   2.0000      -0.467551       -12.7227
 199   2.0000      -0.464612       -12.6427
 200   2.0000      -0.463881       -12.6228
 201   2.0000      -0.454738       -12.3741
 202   2.0000      -0.433229       -11.7888
 203   2.0000      -0.428814       -11.6686
 204   2.0000      -0.421061       -11.4576
 205   2.0000      -0.402120       -10.9422
 206   2.0000      -0.395695       -10.7674
 207   2.0000      -0.381795       -10.3892
 208   2.0000      -0.377362       -10.2686
 209   2.0000      -0.375147       -10.2083
 210   2.0000      -0.373546       -10.1647
 211   2.0000      -0.371460       -10.1080
 212   2.0000      -0.369704       -10.0601
 213   2.0000      -0.368001       -10.0138
 214   2.0000      -0.366615        -9.9761
 215   2.0000      -0.365245        -9.9388
 216   2.0000      -0.362479        -9.8636
 217   2.0000      -0.358037        -9.7427
 218   2.0000      -0.357574        -9.7301
 219   2.0000      -0.355786        -9.6814
 220   2.0000      -0.343976        -9.3601
 221   2.0000      -0.334815        -9.1108
 222   2.0000      -0.310138        -8.4393
 223   0.0000       0.008972         0.2441
 224   0.0000       0.037016         1.0073
 225   0.0000       0.044174         1.2020
 226   0.0000       0.045887         1.2486
 227   0.0000       0.048846         1.3292

MULLIKEN ATOMIC CHARGES
-----------------------
   0 P :    0.637277
   1 P :    0.616334
   2 O :   -0.474252
   3 C :   -0.259327
   4 C :   -0.049166
   5 H :    0.088170
   6 C :   -0.074252
   7 H :    0.087514
   8 C :   -0.067713
   9 H :    0.088708
  10 C :   -0.065596
  11 H :    0.085233
  12 C :   -0.055764
  13 H :    0.086908
  14 C :   -0.290643
  15 C :   -0.052985
  16 H :    0.093328
  17 C :   -0.057495
  18 H :    0.085676
  19 C :   -0.070174
  20 H :    0.084134
  21 C :   -0.040854
  22 C :   -0.333225
  23 C :   -0.045099
  24 C :   -0.072185
  25 H :    0.083337
  26 C :   -0.061033
  27 H :    0.085360
  28 C :   -0.051087
  29 H :    0.092663
  30 C :   -0.317083
  31 C :   -0.304240
  32 C :   -0.036310
  33 H :    0.089319
  34 C :   -0.072911
  35 H :    0.087750
  36 C :   -0.064506
  37 H :    0.091249
  38 C :   -0.071017
  39 H :    0.088119
  40 C :   -0.037476
  41 H :    0.089902
  42 C :   -0.306070
  43 C :   -0.020781
  44 H :    0.083301
  45 C :   -0.058573
  46 H :    0.084313
  47 C :   -0.067049
  48 H :    0.089081
  49 C :   -0.072744
  50 H :    0.086960
  51 C :   -0.035106
  52 H :    0.090578
  53 C :    0.276111
  54 C :    0.239057
  55 C :   -0.010533
  56 H :    0.071546
  57 H :    0.082604
  58 H :    0.082043
  59 C :    0.019616
  60 H :    0.071572
  61 H :    0.073550
  62 H :    0.072689
  63 C :   -0.331413
  64 C :   -0.024304
  65 H :    0.091393
  66 C :   -0.071362
  67 H :    0.089709
  68 C :   -0.060956
  69 H :    0.092511
  70 C :   -0.071463
  71 H :    0.087266
  72 C :   -0.026495
  73 H :    0.082865
  74 Cu:    0.392961
  75 C :    0.147514
  76 C :   -0.117267
  77 C :    0.323468
  78 C :   -0.213991
  79 C :    0.160388
  80 C :    0.154361
  81 C :   -0.117233
  82 C :    0.325244
  83 C :   -0.212305
  84 C :    0.162068
  85 H :    0.097551
  86 H :    0.104657
  87 H :    0.115869
  88 H :    0.096830
  89 H :    0.103003
  90 H :    0.114055
  91 N :   -0.411129
  92 N :   -0.411125
  93 O :   -0.443294
  94 O :   -0.443170
  95 C :    0.086158
  96 H :    0.099755
  97 H :    0.088278
  98 H :    0.088365
  99 C :    0.084571
 100 H :    0.100568
 101 H :    0.088842
 102 H :    0.088506
Sum of atomic charges:    1.0000000

LOEWDIN ATOMIC CHARGES
----------------------
   0 P :    0.789989
   1 P :    0.783428
   2 O :   -0.115341
   3 C :   -0.187960
   4 C :   -0.037212
   5 H :    0.045948
   6 C :   -0.038404
   7 H :    0.049180
   8 C :   -0.030467
   9 H :    0.048929
  10 C :   -0.036793
  11 H :    0.048958
  12 C :   -0.038774
  13 H :    0.042704
  14 C :   -0.206324
  15 C :   -0.023434
  16 H :    0.048694
  17 C :   -0.048672
  18 H :    0.051119
  19 C :   -0.012808
  20 H :    0.052385
  21 C :   -0.043711
  22 C :   -0.044061
  23 C :   -0.044366
  24 C :   -0.015188
  25 H :    0.051885
  26 C :   -0.048822
  27 H :    0.050703
  28 C :   -0.025735
  29 H :    0.049259
  30 C :   -0.206526
  31 C :   -0.197702
  32 C :   -0.034115
  33 H :    0.044263
  34 C :   -0.041357
  35 H :    0.049781
  36 C :   -0.027713
  37 H :    0.050347
  38 C :   -0.040388
  39 H :    0.049882
  40 C :   -0.033761
  41 H :    0.046328
  42 C :   -0.196429
  43 C :   -0.029729
  44 H :    0.044163
  45 C :   -0.034418
  46 H :    0.047227
  47 C :   -0.027463
  48 H :    0.049571
  49 C :   -0.042314
  50 H :    0.049352
  51 C :   -0.035209
  52 H :    0.045651
  53 C :    0.066501
  54 C :    0.060216
  55 C :   -0.048193
  56 H :    0.035090
  57 H :    0.038538
  58 H :    0.038338
  59 C :   -0.039287
  60 H :    0.035415
  61 H :    0.031130
  62 H :    0.035426
  63 C :   -0.203080
  64 C :   -0.025029
  65 H :    0.047718
  66 C :   -0.040844
  67 H :    0.050441
  68 C :   -0.022036
  69 H :    0.051097
  70 C :   -0.042019
  71 H :    0.050093
  72 C :   -0.030483
  73 H :    0.043024
  74 Cu:   -0.249539
  75 C :    0.040970
  76 C :   -0.064172
  77 C :    0.114414
  78 C :   -0.102701
  79 C :    0.077678
  80 C :    0.040586
  81 C :   -0.064159
  82 C :    0.114200
  83 C :   -0.102387
  84 C :    0.077202
  85 H :    0.061084
  86 H :    0.061719
  87 H :    0.052292
  88 H :    0.060989
  89 H :    0.061418
  90 H :    0.045599
  91 N :   -0.065481
  92 N :   -0.067175
  93 O :   -0.134349
  94 O :   -0.134339
  95 C :    0.091207
  96 H :    0.042306
  97 H :    0.033049
  98 H :    0.033040
  99 C :    0.091085
 100 H :    0.042427
 101 H :    0.033224
 102 H :    0.033206

  Mayer bond orders larger than 0.100000
B(  0-P ,  3-C ) :   0.9602 B(  0-P , 14-C ) :   0.9383 B(  0-P , 63-C ) :   0.9833
B(  0-P , 74-Cu) :   0.5648 B(  1-P , 30-C ) :   0.9509 B(  1-P , 31-C ) :   0.9640
B(  1-P , 42-C ) :   0.9788 B(  1-P , 74-Cu) :   0.5280 B(  2-O , 53-C ) :   0.9768
B(  2-O , 54-C ) :   0.9692 B(  3-C ,  4-C ) :   1.3753 B(  3-C , 12-C ) :   1.4191
B(  4-C ,  5-H ) :   0.9888 B(  4-C ,  6-C ) :   1.4424 B(  6-C ,  7-H ) :   0.9932
B(  6-C ,  8-C ) :   1.3857 B(  8-C ,  9-H ) :   0.9929 B(  8-C , 10-C ) :   1.4039
B( 10-C , 11-H ) :   0.9920 B( 10-C , 12-C ) :   1.4221 B( 12-C , 13-H ) :   0.9872
B( 14-C , 15-C ) :   1.4220 B( 14-C , 54-C ) :   1.4270 B( 15-C , 16-H ) :   0.9836
B( 15-C , 17-C ) :   1.4162 B( 17-C , 18-H ) :   0.9927 B( 17-C , 19-C ) :   1.3878
B( 19-C , 20-H ) :   0.9907 B( 19-C , 21-C ) :   1.4412 B( 21-C , 22-C ) :   0.9023
B( 21-C , 54-C ) :   1.4054 B( 22-C , 23-C ) :   0.9020 B( 22-C , 55-C ) :   1.0860
B( 22-C , 59-C ) :   1.0154 B( 23-C , 24-C ) :   1.4314 B( 23-C , 53-C ) :   1.4141
B( 24-C , 25-H ) :   0.9922 B( 24-C , 26-C ) :   1.3942 B( 26-C , 27-H ) :   0.9931
B( 26-C , 28-C ) :   1.4087 B( 28-C , 29-H ) :   0.9875 B( 28-C , 30-C ) :   1.4240
B( 30-C , 53-C ) :   1.4114 B( 31-C , 32-C ) :   1.3697 B( 31-C , 40-C ) :   1.4108
B( 32-C , 33-H ) :   0.9830 B( 32-C , 34-C ) :   1.4362 B( 34-C , 35-H ) :   0.9936
B( 34-C , 36-C ) :   1.3888 B( 36-C , 37-H ) :   0.9913 B( 36-C , 38-C ) :   1.4055
B( 38-C , 39-H ) :   0.9920 B( 38-C , 40-C ) :   1.4143 B( 40-C , 41-H ) :   0.9873
B( 42-C , 43-C ) :   1.3778 B( 42-C , 51-C ) :   1.4001 B( 43-C , 44-H ) :   0.9840
B( 43-C , 45-C ) :   1.4361 B( 45-C , 46-H ) :   0.9900 B( 45-C , 47-C ) :   1.3917
B( 47-C , 48-H ) :   0.9930 B( 47-C , 49-C ) :   1.3996 B( 49-C , 50-H ) :   0.9926
B( 49-C , 51-C ) :   1.4181 B( 51-C , 52-H ) :   0.9860 B( 55-C , 56-H ) :   0.9713
B( 55-C , 57-H ) :   0.9608 B( 55-C , 58-H ) :   0.9607 B( 59-C , 60-H ) :   0.9719
B( 59-C , 61-H ) :   0.9695 B( 59-C , 62-H ) :   0.9732 B( 63-C , 64-C ) :   1.3672
B( 63-C , 72-C ) :   1.3941 B( 64-C , 65-H ) :   0.9892 B( 64-C , 66-C ) :   1.4352
B( 66-C , 67-H ) :   0.9931 B( 66-C , 68-C ) :   1.3876 B( 68-C , 69-H ) :   0.9913
B( 68-C , 70-C ) :   1.4040 B( 70-C , 71-H ) :   0.9946 B( 70-C , 72-C ) :   1.4160
B( 72-C , 73-H ) :   0.9846 B( 74-Cu, 91-N ) :   0.2672 B( 74-Cu, 92-N ) :   0.2481
B( 75-C , 76-C ) :   1.4779 B( 75-C , 80-C ) :   1.0030 B( 75-C , 91-N ) :   1.3518
B( 76-C , 77-C ) :   1.3379 B( 76-C , 85-H ) :   0.9668 B( 77-C , 78-C ) :   1.3252
B( 77-C , 94-O ) :   1.1339 B( 78-C , 79-C ) :   1.4305 B( 78-C , 86-H ) :   0.9792
B( 79-C , 87-H ) :   0.9663 B( 79-C , 91-N ) :   1.4048 B( 80-C , 81-C ) :   1.4805
B( 80-C , 92-N ) :   1.3506 B( 81-C , 82-C ) :   1.3375 B( 81-C , 88-H ) :   0.9666
B( 82-C , 83-C ) :   1.3250 B( 82-C , 93-O ) :   1.1336 B( 83-C , 84-C ) :   1.4367
B( 83-C , 89-H ) :   0.9785 B( 84-C , 90-H ) :   0.9674 B( 84-C , 92-N ) :   1.4149
B( 93-O , 95-C ) :   0.8590 B( 94-O , 99-C ) :   0.8586 B( 95-C , 96-H ) :   0.9819
B( 95-C , 97-H ) :   0.9760 B( 95-C , 98-H ) :   0.9760 B( 99-C ,100-H ) :   0.9817
B( 99-C ,101-H ) :   0.9761 B( 99-C ,102-H ) :   0.9761

MP2 TOTAL ENERGY:    -4622.956850903 Eh

-----------------------------------------------------------------------------
         ABSORPTION SPECTRUM VIA TRANSITION ELECTRIC DIPOLE MOMENTS
-----------------------------------------------------------------------------
State   Energy    Wavelength  fosc         T2        TX        TY        TZ
        (cm-1)      (nm)                 (au**2)    (au)      (au)      (au)
-----------------------------------------------------------------------------
   1   37955.6    263.5   0.268630470   2.32999   0.60999   1.13908  -0.81265
   2   26748.3    373.9   0.128477271   1.58127  -1.15550   0.36000  -0.34129
   3   34280.8    291.7   0.064233343   0.61686  -0.02327   0.77612   0.11810
   4   36480.5    274.1   0.251085696   2.26588   0.77815   0.77247  -1.03134
   5   37293.1    268.1   0.083405566   0.73628   0.54908   0.41413  -0.51311
   6   38619.3    258.9   0.054328135   0.46312   0.49076   0.46970   0.04075
   7   29385.9    340.3   0.034273892   0.38397   0.52709  -0.13815   0.29506
   8   37388.3    267.5   0.109801800   0.96683   0.16872   0.35037   0.90311
   9   39428.0    253.6   0.161813928   1.35110   0.53155  -0.78722   0.66995
  10   38771.5    257.9   0.034965392   0.29689  -0.14489  -0.39936   0.34119
  11   39109.1    255.7   0.034829140   0.29318  -0.42674   0.20795   0.26045
  12   39309.9    254.4   0.172691444   1.44626  -0.78073   0.60453  -0.68648
  13   38363.1    260.7   0.001441352   0.01237  -0.04499  -0.10156  -0.00557
  14   38568.4    259.3   0.016841592   0.14376   0.37872   0.00225  -0.01792
  15   42135.5    237.3   0.023253835   0.18169   0.27181  -0.32090  -0.06950
  16   38659.4    258.7   0.046522035   0.39617  -0.56679  -0.09079   0.25822
  17   39495.5    253.2   0.182118916   1.51804  -0.38718  -0.85213  -0.80125
  18   39476.3    253.3   0.019968050   0.16652  -0.12801   0.29821   0.24741
  19   43635.2    229.2   0.020829780   0.15715  -0.35173   0.18153   0.02201
  20   40860.0    244.7   0.043039716   0.34677  -0.55606   0.17278  -0.08787
  21   44916.1    222.6   0.111872002   0.81996  -0.27299   0.28640   0.81450
  22   45528.2    219.6   0.105206236   0.76074   0.41994   0.71059   0.28189
  23   43125.9    231.9   0.512019317   3.90862   0.61353   1.53103  -1.09002
  24   37533.4    266.4   0.021283441   0.18668   0.36278  -0.21083  -0.10305
  25   43618.7    229.3   0.208267872   1.57190  -0.06882   1.21569   0.29878
  26   45569.9    219.4   0.119607756   0.86409   0.27420  -0.38429  -0.80076
  27   45647.6    219.1   0.701319662   5.05794   0.36900   2.19966  -0.28858
  28   43000.9    232.6   0.176706019   1.35285   0.02711  -0.01079  -1.16275
  29   47239.6    211.7   0.504412577   3.51524  -1.57603  -0.56156  -0.84619
  30   41591.4    240.4   0.031702572   0.25094   0.07672  -0.49502  -0.00164
  31   42341.2    236.2   0.115102802   0.89495   0.04812  -0.53600  -0.77803
  32   43119.0    231.9   0.047543414   0.36299  -0.19388  -0.39766  -0.40899
  33   45476.1    219.9   0.053363035   0.38631  -0.44169   0.09300   0.42728
  34   42140.8    237.3   0.080968593   0.63254  -0.64532   0.17596   0.43028
  35   47318.1    211.3   0.626617112   4.35964  -1.41064  -1.13145   1.04381
  36   48795.9    204.9   1.073173450   7.24039  -1.51823  -0.42197   2.18112
  37   49353.3    202.6   0.085717066   0.57178  -0.55337   0.48627   0.17057
  38   47338.5    211.2   0.832079390   5.78663  -2.01761   1.21197   0.49698
  39   43326.9    230.8   0.362073632   2.75115  -0.56194  -1.32361  -0.82670
  40   47797.8    209.2   0.170982013   1.17765  -0.21823   0.15028  -1.05235

FINAL SINGLE POINT ENERGY     -4618.473999114531

DIPOLE MOMENT
-------------
                                X             Y             Z
Electronic contribution:    -11.06519      -3.24570       9.92032
Nuclear contribution   :      9.23702       4.25834     -10.41740
                        -----------------------------------------
Total Dipole Moment    :     -1.82817       1.01264      -0.49708
                        -----------------------------------------
Magnitude (a.u.)       :      2.14819
Magnitude (Debye)      :      5.46028

Rotational constants in cm-1:     0.001616     0.001412     0.001317
Rotational constants in MHz :    48.449182    42.326998    39.494599

                             ****ORCA TERMINATED NORMALLY****
TOTAL RUN TIME: 0 days 9 hours 14 minutes 4 seconds 343 msec
