                         Program Version 5.0.2 -  RELEASE  -
|  1> %maxcore 26000
|  2> %pal
|  3>  nprocs= 8
|  4> end
|  5> ! RI-B2GP-PLYP  def2-SVP def2/J def2-SVP/C RIJCOSX CPCM TIGHTSCF
|  6>
|  7> %TDDFT
|  8>     DCORR      4
|  9>     NROOTS    40
| 10>     TDA       FALSE
| 11> END
| 12>
| 13> %CPCM
| 14>     SMD		TRUE
| 15>     SMDsolvent	"CH2Cl2"
| 16> END
| 17>
| 18> * xyz 1 1
| 19> P                   1.15653200    0.85817700    1.66642400
| 20> P                   0.00802600   -1.81067000   -0.84647500
| 21> O                   2.28029400   -0.07925400   -0.85943500
| 22> C                   2.18357000   -0.36536700    2.55862700
| 23> C                   1.62348100   -0.98500900    3.68834300
| 24> H                   0.61974900   -0.70279800    4.02439100
| 25> C                   2.33937700   -1.94843000    4.39348800
| 26> H                   1.89667900   -2.41281200    5.27822700
| 27> C                   3.61496500   -2.32477600    3.96732800
| 28> H                   4.17444600   -3.08619500    4.51630500
| 29> C                   4.16912300   -1.72874500    2.83574900
| 30> H                   5.16523400   -2.02090600    2.49395100
| 31> C                   3.46172600   -0.74978100    2.13588300
| 32> H                   3.91913400   -0.28083500    1.26043600
| 33> C                   2.32365100    1.78461000    0.59343600
| 34> C                   2.73537600    3.10250600    0.83351000
| 35> H                   2.44761800    3.60300100    1.76110300
| 36> C                   3.48813700    3.79090100   -0.11631900
| 37> H                   3.79610800    4.81969800    0.08218100
| 38> C                   3.84940000    3.18024300   -1.31809900
| 39> H                   4.43851500    3.73975700   -2.04771600
| 40> C                   3.47332600    1.86246700   -1.59139900
| 41> C                   3.86947700    1.07636500   -2.83758800
| 42> C                   2.68013000    0.19692300   -3.20751700
| 43> C                   2.28463900   -0.12950400   -4.50846300
| 44> H                   2.81278100    0.30280300   -5.36097900
| 45> C                   1.22868700   -1.01461700   -4.73435200
| 46> H                   0.94221100   -1.26372400   -5.75837400
| 47> C                   0.53874300   -1.58805700   -3.66659100
| 48> H                  -0.28860900   -2.27687400   -3.85692200
| 49> C                   0.89225300   -1.26987200   -2.35012900
| 50> C                  -1.39736400   -2.79040900   -1.48091400
| 51> C                  -2.51895100   -2.07657300   -1.93432200
| 52> H                  -2.49853600   -0.98097100   -1.92899300
| 53> C                  -3.64904300   -2.74879400   -2.39231800
| 54> H                  -4.51396000   -2.18055100   -2.74386900
| 55> C                  -3.67778500   -4.14510000   -2.39104000
| 56> H                  -4.56691700   -4.67487300   -2.74116800
| 57> C                  -2.56985200   -4.86178300   -1.93960300
| 58> H                  -2.58794200   -5.95433300   -1.93915400
| 59> C                  -1.43249500   -4.19074800   -1.48780300
| 60> H                  -0.56980400   -4.76457800   -1.13778400
| 61> C                   1.12775700   -3.04030400   -0.08910100
| 62> C                   0.81553000   -3.49824700    1.20004800
| 63> H                  -0.07008600   -3.10962100    1.71479900
| 64> C                   1.62007300   -4.44646600    1.82749400
| 65> H                   1.36319800   -4.79848100    2.82971300
| 66> C                   2.75932300   -4.93272200    1.18376500
| 67> H                   3.39641600   -5.66905500    1.67984700
| 68> C                   3.08635700   -4.46979500   -0.09035000
| 69> H                   3.97868700   -4.84488400   -0.59748800
| 70> C                   2.27371400   -3.53174000   -0.72783400
| 71> H                   2.53554300   -3.18595700   -1.73206000
| 72> C                   1.96145400   -0.38412700   -2.16080600
| 73> C                   2.71327600    1.20147200   -0.62133000
| 74> C                   4.28952600    1.98573300   -3.98246100
| 75> H                   3.48369100    2.66909500   -4.28786800
| 76> H                   4.58794500    1.39763400   -4.86032800
| 77> H                   5.16256800    2.59100300   -3.70475800
| 78> C                   5.04613800    0.15255600   -2.46737300
| 79> H                   5.34466800   -0.45683600   -3.33297400
| 80> H                   4.78865700   -0.53430200   -1.64736500
| 81> H                   5.91703900    0.74455800   -2.14975600
| 82> C                   0.72626100    2.07767700    2.96022300
| 83> C                   1.57535200    2.37665700    4.03606600
| 84> H                   2.53521200    1.86110000    4.13647700
| 85> C                   1.20405900    3.33442400    4.97769100
| 86> H                   1.87104100    3.56065900    5.81308300
| 87> C                  -0.01390600    4.00599600    4.85311600
| 88> H                  -0.30233200    4.75561900    5.59393200
| 89> C                  -0.86324200    3.71581200    3.78568300
| 90> H                  -1.81932900    4.23524900    3.68735700
| 91> C                  -0.49725400    2.75221100    2.84603200
| 92> H                  -1.16760600    2.51318300    2.01320900
| 93> Cu                 -0.56304600    0.03999100    0.42417400
| 94> C                  -3.45491400    0.63111800    0.31227000
| 95> C                  -4.83182800    0.45955400    0.40087400
| 96> C                  -5.35034200   -0.56889000    1.20017000
| 97> C                  -4.45077600   -1.38977400    1.89648300
| 98> C                  -3.09328200   -1.13979800    1.74862200
| 99> C                  -2.83812200    1.67338600   -0.54046200
|100> C                  -3.57770500    2.68893300   -1.13620400
|101> C                  -2.92761300    3.63744300   -1.93862100
|102> C                  -1.53998400    3.52661200   -2.11153700
|103> C                  -0.88592800    2.48075200   -1.47439300
|104> H                  -5.52567300    1.09332300   -0.15159400
|105> H                  -4.78503700   -2.20540200    2.53684800
|106> H                  -2.36494400   -1.76337400    2.27741100
|107> H                  -4.65433000    2.77776300   -0.98964100
|108> H                  -0.97241000    4.22924200   -2.72077200
|109> H                   0.19843000    2.36779100   -1.58747000
|110> N                  -2.59106400   -0.16773400    0.98210900
|111> N                  -1.49890400    1.57388600   -0.70887900
|112> O                  -3.68870700    4.58863000   -2.48270700
|113> O                  -6.67830900   -0.69370900    1.23323000
|114> C                  -3.06538700    5.56519900   -3.30163800
|115> H                  -3.85957900    6.23621900   -3.64254100
|116> H                  -2.32129500    6.14629700   -2.73709000
|117> H                  -2.58278300    5.10595700   -4.17707000
|118> C                  -7.23965100   -1.74013000    2.00937500
|119> H                  -8.32476800   -1.66707400    1.88866700
|120> H                  -6.90394300   -2.72610400    1.65509300
|121> H                  -6.98891200   -1.63009600    3.07483000
|122> *
|123>
|124>                          ****END OF INPUT****

CARTESIAN COORDINATES (ANGSTROEM)
---------------------------------
  P      1.156532    0.858177    1.666424
  P      0.008026   -1.810670   -0.846475
  O      2.280294   -0.079254   -0.859435
  C      2.183570   -0.365367    2.558627
  C      1.623481   -0.985009    3.688343
  H      0.619749   -0.702798    4.024391
  C      2.339377   -1.948430    4.393488
  H      1.896679   -2.412812    5.278227
  C      3.614965   -2.324776    3.967328
  H      4.174446   -3.086195    4.516305
  C      4.169123   -1.728745    2.835749
  H      5.165234   -2.020906    2.493951
  C      3.461726   -0.749781    2.135883
  H      3.919134   -0.280835    1.260436
  C      2.323651    1.784610    0.593436
  C      2.735376    3.102506    0.833510
  H      2.447618    3.603001    1.761103
  C      3.488137    3.790901   -0.116319
  H      3.796108    4.819698    0.082181
  C      3.849400    3.180243   -1.318099
  H      4.438515    3.739757   -2.047716
  C      3.473326    1.862467   -1.591399
  C      3.869477    1.076365   -2.837588
  C      2.680130    0.196923   -3.207517
  C      2.284639   -0.129504   -4.508463
  H      2.812781    0.302803   -5.360979
  C      1.228687   -1.014617   -4.734352
  H      0.942211   -1.263724   -5.758374
  C      0.538743   -1.588057   -3.666591
  H     -0.288609   -2.276874   -3.856922
  C      0.892253   -1.269872   -2.350129
  C     -1.397364   -2.790409   -1.480914
  C     -2.518951   -2.076573   -1.934322
  H     -2.498536   -0.980971   -1.928993
  C     -3.649043   -2.748794   -2.392318
  H     -4.513960   -2.180551   -2.743869
  C     -3.677785   -4.145100   -2.391040
  H     -4.566917   -4.674873   -2.741168
  C     -2.569852   -4.861783   -1.939603
  H     -2.587942   -5.954333   -1.939154
  C     -1.432495   -4.190748   -1.487803
  H     -0.569804   -4.764578   -1.137784
  C      1.127757   -3.040304   -0.089101
  C      0.815530   -3.498247    1.200048
  H     -0.070086   -3.109621    1.714799
  C      1.620073   -4.446466    1.827494
  H      1.363198   -4.798481    2.829713
  C      2.759323   -4.932722    1.183765
  H      3.396416   -5.669055    1.679847
  C      3.086357   -4.469795   -0.090350
  H      3.978687   -4.844884   -0.597488
  C      2.273714   -3.531740   -0.727834
  H      2.535543   -3.185957   -1.732060
  C      1.961454   -0.384127   -2.160806
  C      2.713276    1.201472   -0.621330
  C      4.289526    1.985733   -3.982461
  H      3.483691    2.669095   -4.287868
  H      4.587945    1.397634   -4.860328
  H      5.162568    2.591003   -3.704758
  C      5.046138    0.152556   -2.467373
  H      5.344668   -0.456836   -3.332974
  H      4.788657   -0.534302   -1.647365
  H      5.917039    0.744558   -2.149756
  C      0.726261    2.077677    2.960223
  C      1.575352    2.376657    4.036066
  H      2.535212    1.861100    4.136477
  C      1.204059    3.334424    4.977691
  H      1.871041    3.560659    5.813083
  C     -0.013906    4.005996    4.853116
  H     -0.302332    4.755619    5.593932
  C     -0.863242    3.715812    3.785683
  H     -1.819329    4.235249    3.687357
  C     -0.497254    2.752211    2.846032
  H     -1.167606    2.513183    2.013209
  Cu    -0.563046    0.039991    0.424174
  C     -3.454914    0.631118    0.312270
  C     -4.831828    0.459554    0.400874
  C     -5.350342   -0.568890    1.200170
  C     -4.450776   -1.389774    1.896483
  C     -3.093282   -1.139798    1.748622
  C     -2.838122    1.673386   -0.540462
  C     -3.577705    2.688933   -1.136204
  C     -2.927613    3.637443   -1.938621
  C     -1.539984    3.526612   -2.111537
  C     -0.885928    2.480752   -1.474393
  H     -5.525673    1.093323   -0.151594
  H     -4.785037   -2.205402    2.536848
  H     -2.364944   -1.763374    2.277411
  H     -4.654330    2.777763   -0.989641
  H     -0.972410    4.229242   -2.720772
  H      0.198430    2.367791   -1.587470
  N     -2.591064   -0.167734    0.982109
  N     -1.498904    1.573886   -0.708879
  O     -3.688707    4.588630   -2.482707
  O     -6.678309   -0.693709    1.233230
  C     -3.065387    5.565199   -3.301638
  H     -3.859579    6.236219   -3.642541
  H     -2.321295    6.146297   -2.737090
  H     -2.582783    5.105957   -4.177070
  C     -7.239651   -1.740130    2.009375
  H     -8.324768   -1.667074    1.888667
  H     -6.903943   -2.726104    1.655093
  H     -6.988912   -1.630096    3.074830

 Total Charge           Charge          ....    1
 Multiplicity           Mult            ....    1
 Number of Electrons    NEL             ....  446
 Basis Dimension        Dim             .... 1071

ORBITAL ENERGIES
----------------

  NO   OCC          E(Eh)            E(eV)
   0   2.0000    -326.284552     -8878.6540
   1   2.0000     -78.718424     -2142.0372
   2   2.0000     -78.714495     -2141.9303
   3   2.0000     -39.948925     -1087.0655
   4   2.0000     -34.936618      -950.6737
   5   2.0000     -34.936419      -950.6683
   6   2.0000     -34.936060      -950.6585
   7   2.0000     -20.008589      -544.4614
   8   2.0000     -19.994880      -544.0884
   9   2.0000     -19.994765      -544.0852
  10   2.0000     -15.062233      -409.8642
  11   2.0000     -15.062205      -409.8634
  12   2.0000     -10.889446      -296.3169
  13   2.0000     -10.889386      -296.3153
  14   2.0000     -10.870399      -295.7986
  15   2.0000     -10.868777      -295.7545
  16   2.0000     -10.859975      -295.5149
  17   2.0000     -10.859514      -295.5024
  18   2.0000     -10.850312      -295.2520
  19   2.0000     -10.849770      -295.2372
  20   2.0000     -10.845050      -295.1088
  21   2.0000     -10.845043      -295.1086
  22   2.0000     -10.818468      -294.3855
  23   2.0000     -10.810694      -294.1739
  24   2.0000     -10.809557      -294.1430
  25   2.0000     -10.809228      -294.1340
  26   2.0000     -10.809088      -294.1302
  27   2.0000     -10.808912      -294.1254
  28   2.0000     -10.808653      -294.1184
  29   2.0000     -10.807145      -294.0774
  30   2.0000     -10.806972      -294.0727
  31   2.0000     -10.806861      -294.0696
  32   2.0000     -10.806776      -294.0673
  33   2.0000     -10.806379      -294.0565
  34   2.0000     -10.805551      -294.0340
  35   2.0000     -10.805469      -294.0318
  36   2.0000     -10.805424      -294.0305
  37   2.0000     -10.804933      -294.0172
  38   2.0000     -10.804718      -294.0113
  39   2.0000     -10.804334      -294.0009
  40   2.0000     -10.803836      -293.9873
  41   2.0000     -10.803286      -293.9724
  42   2.0000     -10.802782      -293.9586
  43   2.0000     -10.802518      -293.9515
  44   2.0000     -10.801957      -293.9362
  45   2.0000     -10.801594      -293.9263
  46   2.0000     -10.801573      -293.9257
  47   2.0000     -10.801481      -293.9232
  48   2.0000     -10.800271      -293.8903
  49   2.0000     -10.798703      -293.8476
  50   2.0000     -10.798576      -293.8442
  51   2.0000     -10.798533      -293.8430
  52   2.0000     -10.798478      -293.8415
  53   2.0000     -10.797896      -293.8257
  54   2.0000     -10.797825      -293.8237
  55   2.0000     -10.797793      -293.8229
  56   2.0000     -10.797672      -293.8196
  57   2.0000     -10.797094      -293.8039
  58   2.0000     -10.796948      -293.7999
  59   2.0000     -10.796660      -293.7921
  60   2.0000     -10.796563      -293.7894
  61   2.0000     -10.781737      -293.3860
  62   2.0000     -10.779548      -293.3264
  63   2.0000      -7.115748      -193.6294
  64   2.0000      -7.112208      -193.5330
  65   2.0000      -5.131134      -139.6253
  66   2.0000      -5.130982      -139.6211
  67   2.0000      -5.129938      -139.5927
  68   2.0000      -5.127522      -139.5270
  69   2.0000      -5.127430      -139.5245
  70   2.0000      -5.126331      -139.4946
  71   2.0000      -4.684816      -127.4803
  72   2.0000      -3.078445       -83.7687
  73   2.0000      -3.076058       -83.7038
  74   2.0000      -3.074256       -83.6548
  75   2.0000      -1.302177       -35.4340
  76   2.0000      -1.284059       -34.9410
  77   2.0000      -1.283932       -34.9376
  78   2.0000      -1.159078       -31.5401
  79   2.0000      -1.130458       -30.7613
  80   2.0000      -1.046820       -28.4854
  81   2.0000      -1.044661       -28.4267
  82   2.0000      -1.034807       -28.1585
  83   2.0000      -1.032022       -28.0828
  84   2.0000      -1.027896       -27.9705
  85   2.0000      -1.026294       -27.9269
  86   2.0000      -0.989821       -26.9344
  87   2.0000      -0.980328       -26.6761
  88   2.0000      -0.971545       -26.4371
  89   2.0000      -0.970798       -26.4167
  90   2.0000      -0.942457       -25.6455
  91   2.0000      -0.933018       -25.3887
  92   2.0000      -0.922603       -25.1053
  93   2.0000      -0.914889       -24.8954
  94   2.0000      -0.907024       -24.6814
  95   2.0000      -0.904816       -24.6213
  96   2.0000      -0.904005       -24.5992
  97   2.0000      -0.903578       -24.5876
  98   2.0000      -0.901089       -24.5199
  99   2.0000      -0.899684       -24.4816
 100   2.0000      -0.898411       -24.4470
 101   2.0000      -0.893053       -24.3012
 102   2.0000      -0.877433       -23.8762
 103   2.0000      -0.869640       -23.6641
 104   2.0000      -0.856097       -23.2956
 105   2.0000      -0.832417       -22.6512
 106   2.0000      -0.809940       -22.0396
 107   2.0000      -0.802605       -21.8400
 108   2.0000      -0.798398       -21.7255
 109   2.0000      -0.777510       -21.1571
 110   2.0000      -0.774887       -21.0857
 111   2.0000      -0.771556       -20.9951
 112   2.0000      -0.766330       -20.8529
 113   2.0000      -0.740532       -20.1509
 114   2.0000      -0.739774       -20.1303
 115   2.0000      -0.737854       -20.0780
 116   2.0000      -0.737273       -20.0622
 117   2.0000      -0.728845       -19.8329
 118   2.0000      -0.728157       -19.8142
 119   2.0000      -0.726711       -19.7748
 120   2.0000      -0.721875       -19.6432
 121   2.0000      -0.719167       -19.5695
 122   2.0000      -0.693391       -18.8681
 123   2.0000      -0.685634       -18.6571
 124   2.0000      -0.679773       -18.4976
 125   2.0000      -0.673105       -18.3161
 126   2.0000      -0.669036       -18.2054
 127   2.0000      -0.658170       -17.9097
 128   2.0000      -0.648055       -17.6345
 129   2.0000      -0.636408       -17.3175
 130   2.0000      -0.632946       -17.2233
 131   2.0000      -0.626360       -17.0441
 132   2.0000      -0.625853       -17.0303
 133   2.0000      -0.617376       -16.7997
 134   2.0000      -0.613250       -16.6874
 135   2.0000      -0.607443       -16.5294
 136   2.0000      -0.597490       -16.2585
 137   2.0000      -0.595979       -16.2174
 138   2.0000      -0.594871       -16.1873
 139   2.0000      -0.590164       -16.0592
 140   2.0000      -0.588836       -16.0230
 141   2.0000      -0.588389       -16.0109
 142   2.0000      -0.582105       -15.8399
 143   2.0000      -0.580356       -15.7923
 144   2.0000      -0.570233       -15.5168
 145   2.0000      -0.569691       -15.5021
 146   2.0000      -0.567863       -15.4523
 147   2.0000      -0.566730       -15.4215
 148   2.0000      -0.559070       -15.2131
 149   2.0000      -0.558595       -15.2001
 150   2.0000      -0.556039       -15.1306
 151   2.0000      -0.553676       -15.0663
 152   2.0000      -0.551880       -15.0174
 153   2.0000      -0.551704       -15.0126
 154   2.0000      -0.548463       -14.9244
 155   2.0000      -0.548067       -14.9137
 156   2.0000      -0.542715       -14.7680
 157   2.0000      -0.538505       -14.6535
 158   2.0000      -0.532807       -14.4984
 159   2.0000      -0.528659       -14.3855
 160   2.0000      -0.526963       -14.3394
 161   2.0000      -0.526749       -14.3336
 162   2.0000      -0.525201       -14.2914
 163   2.0000      -0.522792       -14.2259
 164   2.0000      -0.519785       -14.1441
 165   2.0000      -0.514168       -13.9912
 166   2.0000      -0.510181       -13.8827
 167   2.0000      -0.508781       -13.8446
 168   2.0000      -0.501010       -13.6332
 169   2.0000      -0.497512       -13.5380
 170   2.0000      -0.496204       -13.5024
 171   2.0000      -0.488016       -13.2796
 172   2.0000      -0.487245       -13.2586
 173   2.0000      -0.484794       -13.1919
 174   2.0000      -0.484155       -13.1745
 175   2.0000      -0.481971       -13.1151
 176   2.0000      -0.470793       -12.8109
 177   2.0000      -0.469280       -12.7698
 178   2.0000      -0.464447       -12.6382
 179   2.0000      -0.462241       -12.5782
 180   2.0000      -0.459052       -12.4914
 181   2.0000      -0.457694       -12.4545
 182   2.0000      -0.453188       -12.3319
 183   2.0000      -0.450454       -12.2575
 184   2.0000      -0.449917       -12.2429
 185   2.0000      -0.449179       -12.2228
 186   2.0000      -0.448387       -12.2012
 187   2.0000      -0.444179       -12.0867
 188   2.0000      -0.443336       -12.0638
 189   2.0000      -0.442906       -12.0521
 190   2.0000      -0.441815       -12.0224
 191   2.0000      -0.440746       -11.9933
 192   2.0000      -0.439680       -11.9643
 193   2.0000      -0.435024       -11.8376
 194   2.0000      -0.433827       -11.8050
 195   2.0000      -0.432061       -11.7570
 196   2.0000      -0.422021       -11.4838
 197   2.0000      -0.421033       -11.4569
 198   2.0000      -0.417330       -11.3561
 199   2.0000      -0.415694       -11.3116
 200   2.0000      -0.411545       -11.1987
 201   2.0000      -0.406211       -11.0536
 202   2.0000      -0.376670       -10.2497
 203   2.0000      -0.373762       -10.1706
 204   2.0000      -0.371754       -10.1159
 205   2.0000      -0.351667        -9.5693
 206   2.0000      -0.346573        -9.4307
 207   2.0000      -0.332356        -9.0439
 208   2.0000      -0.330330        -8.9887
 209   2.0000      -0.328177        -8.9301
 210   2.0000      -0.326933        -8.8963
 211   2.0000      -0.325239        -8.8502
 212   2.0000      -0.323082        -8.7915
 213   2.0000      -0.322802        -8.7839
 214   2.0000      -0.321393        -8.7456
 215   2.0000      -0.319712        -8.6998
 216   2.0000      -0.317378        -8.6363
 217   2.0000      -0.312720        -8.5095
 218   2.0000      -0.311403        -8.4737
 219   2.0000      -0.311045        -8.4640
 220   2.0000      -0.298138        -8.1128
 221   2.0000      -0.289552        -7.8791
 222   2.0000      -0.266149        -7.2423
 223   0.0000      -0.006751        -0.1837
 224   0.0000       0.021766         0.5923
 225   0.0000       0.027709         0.7540
 226   0.0000       0.028878         0.7858
 227   0.0000       0.032072         0.8727

MULLIKEN ATOMIC CHARGES
-----------------------
   0 P :    0.646225
   1 P :    0.631184
   2 O :   -0.468651
   3 C :   -0.237330
   4 C :   -0.020739
   5 H :    0.048747
   6 C :   -0.034278
   7 H :    0.045556
   8 C :   -0.027373
   9 H :    0.047578
  10 C :   -0.028185
  11 H :    0.044665
  12 C :   -0.028762
  13 H :    0.052249
  14 C :   -0.281665
  15 C :   -0.033883
  16 H :    0.057034
  17 C :   -0.016631
  18 H :    0.042783
  19 C :   -0.054438
  20 H :    0.043326
  21 C :   -0.034590
  22 C :   -0.253250
  23 C :   -0.034021
  24 C :   -0.055846
  25 H :    0.042780
  26 C :   -0.018058
  27 H :    0.042587
  28 C :   -0.032093
  29 H :    0.055199
  30 C :   -0.294533
  31 C :   -0.269422
  32 C :   -0.010414
  33 H :    0.055140
  34 C :   -0.037661
  35 H :    0.045520
  36 C :   -0.024878
  37 H :    0.049078
  38 C :   -0.031091
  39 H :    0.045676
  40 C :   -0.017434
  41 H :    0.054035
  42 C :   -0.265808
  43 C :   -0.005764
  44 H :    0.046134
  45 C :   -0.022073
  46 H :    0.044377
  47 C :   -0.028842
  48 H :    0.047707
  49 C :   -0.031796
  50 H :    0.044654
  51 C :   -0.017705
  52 H :    0.055492
  53 C :    0.266811
  54 C :    0.257668
  55 C :    0.076622
  56 H :    0.033186
  57 H :    0.046122
  58 H :    0.045432
  59 C :    0.099183
  60 H :    0.034471
  61 H :    0.040057
  62 H :    0.035468
  63 C :   -0.287426
  64 C :    0.003620
  65 H :    0.052836
  66 C :   -0.034801
  67 H :    0.047561
  68 C :   -0.021246
  69 H :    0.050745
  70 C :   -0.033185
  71 H :    0.045230
  72 C :   -0.012656
  73 H :    0.052928
  74 Cu:    0.368157
  75 C :    0.155239
  76 C :   -0.106810
  77 C :    0.332743
  78 C :   -0.177743
  79 C :    0.167888
  80 C :    0.163781
  81 C :   -0.105355
  82 C :    0.334223
  83 C :   -0.179311
  84 C :    0.163742
  85 H :    0.054866
  86 H :    0.064144
  87 H :    0.076865
  88 H :    0.054012
  89 H :    0.064209
  90 H :    0.082275
  91 N :   -0.368526
  92 N :   -0.374483
  93 O :   -0.427087
  94 O :   -0.426900
  95 C :    0.178323
  96 H :    0.065004
  97 H :    0.057058
  98 H :    0.057273
  99 C :    0.176921
 100 H :    0.065665
 101 H :    0.057358
 102 H :    0.057330
Sum of atomic charges:    1.0000000

LOEWDIN ATOMIC CHARGES
----------------------
   0 P :    0.795498
   1 P :    0.783286
   2 O :   -0.116344
   3 C :   -0.184527
   4 C :   -0.029669
   5 H :    0.037301
   6 C :   -0.030431
   7 H :    0.039451
   8 C :   -0.023851
   9 H :    0.039563
  10 C :   -0.029405
  11 H :    0.039611
  12 C :   -0.032469
  13 H :    0.035938
  14 C :   -0.203558
  15 C :   -0.018935
  16 H :    0.040559
  17 C :   -0.041826
  18 H :    0.040884
  19 C :   -0.007750
  20 H :    0.043108
  21 C :   -0.039345
  22 C :   -0.035622
  23 C :   -0.039484
  24 C :   -0.009669
  25 H :    0.042774
  26 C :   -0.041372
  27 H :    0.040583
  28 C :   -0.020431
  29 H :    0.040561
  30 C :   -0.203677
  31 C :   -0.191794
  32 C :   -0.026712
  33 H :    0.037192
  34 C :   -0.033796
  35 H :    0.039796
  36 C :   -0.021161
  37 H :    0.040487
  38 C :   -0.032535
  39 H :    0.039984
  40 C :   -0.028094
  41 H :    0.038082
  42 C :   -0.188487
  43 C :   -0.025024
  44 H :    0.036667
  45 C :   -0.027727
  46 H :    0.038713
  47 C :   -0.021679
  48 H :    0.040008
  49 C :   -0.033150
  50 H :    0.039568
  51 C :   -0.030322
  52 H :    0.037272
  53 C :    0.067465
  54 C :    0.065351
  55 C :   -0.026504
  56 H :    0.025933
  57 H :    0.029385
  58 H :    0.029108
  59 C :   -0.019545
  60 H :    0.025964
  61 H :    0.023319
  62 H :    0.025930
  63 C :   -0.196006
  64 C :   -0.018891
  65 H :    0.038813
  66 C :   -0.032776
  67 H :    0.040627
  68 C :   -0.015829
  69 H :    0.041339
  70 C :   -0.033974
  71 H :    0.040183
  72 C :   -0.025806
  73 H :    0.036915
  74 Cu:   -0.220986
  75 C :    0.042657
  76 C :   -0.055629
  77 C :    0.113268
  78 C :   -0.091908
  79 C :    0.079569
  80 C :    0.042045
  81 C :   -0.055836
  82 C :    0.113006
  83 C :   -0.092361
  84 C :    0.078772
  85 H :    0.051498
  86 H :    0.052655
  87 H :    0.042473
  88 H :    0.051475
  89 H :    0.052528
  90 H :    0.041057
  91 N :   -0.065385
  92 N :   -0.065727
  93 O :   -0.133361
  94 O :   -0.133286
  95 C :    0.113029
  96 H :    0.033724
  97 H :    0.025242
  98 H :    0.025252
  99 C :    0.112693
 100 H :    0.033828
 101 H :    0.025363
 102 H :    0.025307

  Mayer bond orders larger than 0.100000
B(  0-P ,  3-C ) :   0.9632 B(  0-P , 14-C ) :   0.9429 B(  0-P , 63-C ) :   0.9822
B(  0-P , 74-Cu) :   0.5805 B(  1-P , 30-C ) :   0.9535 B(  1-P , 31-C ) :   0.9639
B(  1-P , 42-C ) :   0.9705 B(  1-P , 74-Cu) :   0.5140 B(  2-O , 53-C ) :   0.9783
B(  2-O , 54-C ) :   0.9707 B(  3-C ,  4-C ) :   1.3681 B(  3-C , 12-C ) :   1.4169
B(  4-C ,  5-H ) :   0.9946 B(  4-C ,  6-C ) :   1.4316 B(  6-C ,  7-H ) :   0.9992
B(  6-C ,  8-C ) :   1.3743 B(  8-C ,  9-H ) :   0.9985 B(  8-C , 10-C ) :   1.3980
B( 10-C , 11-H ) :   0.9968 B( 10-C , 12-C ) :   1.4040 B( 12-C , 13-H ) :   0.9919
B( 14-C , 15-C ) :   1.4142 B( 14-C , 54-C ) :   1.4096 B( 15-C , 16-H ) :   0.9921
B( 15-C , 17-C ) :   1.3988 B( 17-C , 18-H ) :   0.9995 B( 17-C , 19-C ) :   1.3700
B( 19-C , 20-H ) :   0.9997 B( 19-C , 21-C ) :   1.4312 B( 21-C , 22-C ) :   0.9102
B( 21-C , 54-C ) :   1.3994 B( 22-C , 23-C ) :   0.9097 B( 22-C , 55-C ) :   1.0949
B( 22-C , 59-C ) :   1.0230 B( 23-C , 24-C ) :   1.4249 B( 23-C , 53-C ) :   1.4054
B( 24-C , 25-H ) :   1.0008 B( 24-C , 26-C ) :   1.3733 B( 26-C , 27-H ) :   0.9999
B( 26-C , 28-C ) :   1.3936 B( 28-C , 29-H ) :   0.9948 B( 28-C , 30-C ) :   1.4133
B( 30-C , 53-C ) :   1.3999 B( 31-C , 32-C ) :   1.3655 B( 31-C , 40-C ) :   1.4053
B( 32-C , 33-H ) :   0.9883 B( 32-C , 34-C ) :   1.4241 B( 34-C , 35-H ) :   0.9999
B( 34-C , 36-C ) :   1.3783 B( 36-C , 37-H ) :   0.9981 B( 36-C , 38-C ) :   1.3950
B( 38-C , 39-H ) :   0.9984 B( 38-C , 40-C ) :   1.3995 B( 40-C , 41-H ) :   0.9938
B( 42-C , 43-C ) :   1.3733 B( 42-C , 51-C ) :   1.4020 B( 43-C , 44-H ) :   0.9920
B( 43-C , 45-C ) :   1.4239 B( 45-C , 46-H ) :   0.9971 B( 45-C , 47-C ) :   1.3808
B( 47-C , 48-H ) :   0.9993 B( 47-C , 49-C ) :   1.3912 B( 49-C , 50-H ) :   0.9984
B( 49-C , 51-C ) :   1.4024 B( 51-C , 52-H ) :   0.9906 B( 55-C , 56-H ) :   0.9688
B( 55-C , 57-H ) :   0.9596 B( 55-C , 58-H ) :   0.9594 B( 59-C , 60-H ) :   0.9708
B( 59-C , 61-H ) :   0.9695 B( 59-C , 62-H ) :   0.9719 B( 63-C , 64-C ) :   1.3660
B( 63-C , 72-C ) :   1.3868 B( 64-C , 65-H ) :   0.9952 B( 64-C , 66-C ) :   1.4190
B( 66-C , 67-H ) :   1.0000 B( 66-C , 68-C ) :   1.3789 B( 68-C , 69-H ) :   0.9983
B( 68-C , 70-C ) :   1.3922 B( 70-C , 71-H ) :   1.0011 B( 70-C , 72-C ) :   1.4030
B( 72-C , 73-H ) :   0.9905 B( 74-Cu, 91-N ) :   0.2714 B( 74-Cu, 92-N ) :   0.2506
B( 75-C , 76-C ) :   1.4554 B( 75-C , 80-C ) :   0.9939 B( 75-C , 91-N ) :   1.3592
B( 76-C , 77-C ) :   1.3242 B( 76-C , 85-H ) :   0.9807 B( 77-C , 78-C ) :   1.3196
B( 77-C , 94-O ) :   1.1431 B( 78-C , 79-C ) :   1.4178 B( 78-C , 86-H ) :   0.9876
B( 79-C , 87-H ) :   0.9723 B( 79-C , 91-N ) :   1.4104 B( 80-C , 81-C ) :   1.4585
B( 80-C , 92-N ) :   1.3527 B( 81-C , 82-C ) :   1.3232 B( 81-C , 88-H ) :   0.9804
B( 82-C , 83-C ) :   1.3194 B( 82-C , 93-O ) :   1.1432 B( 83-C , 84-C ) :   1.4177
B( 83-C , 89-H ) :   0.9873 B( 84-C , 90-H ) :   0.9726 B( 84-C , 92-N ) :   1.4192
B( 93-O , 95-C ) :   0.8716 B( 94-O , 99-C ) :   0.8716 B( 95-C , 96-H ) :   0.9846
B( 95-C , 97-H ) :   0.9787 B( 95-C , 98-H ) :   0.9786 B( 99-C ,100-H ) :   0.9846
B( 99-C ,101-H ) :   0.9787 B( 99-C ,102-H ) :   0.9787

MP2 TOTAL ENERGY:    -4622.434787087 Eh

-----------------------------------------------------------------------------
         ABSORPTION SPECTRUM VIA TRANSITION ELECTRIC DIPOLE MOMENTS
-----------------------------------------------------------------------------
State   Energy    Wavelength  fosc         T2        TX        TY        TZ
        (cm-1)      (nm)                 (au**2)    (au)      (au)      (au)
-----------------------------------------------------------------------------
   1   21370.0    467.9   0.090424675   1.39302  -1.04565   0.51120  -0.19573
   2   38787.3    257.8   0.258395860   2.19317  -0.61307  -1.04753   0.84852
   3   32369.0    308.9   0.057775552   0.58761  -0.32867  -0.68809  -0.07826
   4   23494.4    425.6   0.010423744   0.14606   0.33098  -0.16654   0.09368
   5   35708.7    280.0   0.357574773   3.29662   1.07013   0.94215  -1.12418
   6   35830.0    279.1   0.047692415   0.43821   0.17777   0.28851   0.56865
   7   37224.1    268.6   0.014509460   0.12832  -0.20838  -0.04234  -0.28829
   8   38443.8    260.1   0.167423051   1.43372  -0.56420   0.12823  -1.04831
   9   35315.6    283.2   0.097713961   0.91089  -0.36862   0.69881  -0.53542
  10   38762.4    258.0   0.021016982   0.17850  -0.26304   0.04812   0.32710
  11   35754.3    279.7   0.022796275   0.20990   0.33305   0.26599   0.16800
  12   38240.3    261.5   0.194769205   1.67677   0.81880  -0.96775   0.26419
  13   37400.0    267.4   0.026897975   0.23677   0.22006   0.34693   0.26073
  14   40690.8    245.8   0.007627973   0.06171   0.22989  -0.09187   0.02059
  15   40922.2    244.4   0.001892481   0.01522  -0.07035   0.10136  -0.00083
  16   34372.6    290.9   0.055002262   0.52680  -0.54769  -0.42150   0.22175
  17   41681.2    239.9   0.010157923   0.08023  -0.04034   0.28019  -0.00981
  18   39826.1    251.1   0.212262175   1.75461  -0.19096  -0.88731  -0.96479
  19   38242.7    261.5   0.034534408   0.29729  -0.53460   0.06403   0.08599
  20   43879.8    227.9   0.030927055   0.23203   0.31429  -0.30823  -0.19557
  21   42932.4    232.9   0.025311459   0.19409  -0.14726  -0.32982  -0.25224
  22   34512.9    289.7   0.135010152   1.28784   0.52264   0.75492  -0.66692
  23   33247.0    300.8   0.139956243   1.38585   0.04235  -1.01637   0.59249
  24   44380.1    225.3   0.059396823   0.44061  -0.20724  -0.57259  -0.26419
  25   40044.5    249.7   0.028449419   0.23389   0.38928  -0.17239  -0.22942
  26   42160.3    237.2   0.079347479   0.61959  -0.07550   0.35689   0.69751
  27   41769.9    239.4   0.279652260   2.20409   0.47967   1.37132  -0.30578
  28   42299.7    236.4   0.177191722   1.37906   0.95522   0.66978   0.13415
  29   38517.6    259.6   0.018347143   0.15681  -0.19440  -0.27569   0.20741
  30   42465.7    235.5   0.139258157   1.07959   0.29653  -0.43692   0.89485
  31   40912.9    244.4   0.001090819   0.00878   0.01578  -0.04751   0.07919
  32   41712.1    239.7   0.109833991   0.86686   0.73563   0.53203   0.20651
  33   41218.8    242.6   0.047435935   0.37887   0.01491   0.41114  -0.45783
  34   41098.2    243.3   0.105261829   0.84319  -0.42710  -0.45861  -0.67115
  35   42307.5    236.4   0.155734166   1.21183   0.70061   0.84080   0.11843
  36   41757.8    239.5   0.239599450   1.88897   0.31133  -1.25701   0.46041
  37   39246.2    254.8   0.024872006   0.20864   0.01530   0.25749  -0.37696
  38   41404.8    241.5   0.033966947   0.27007  -0.31235  -0.39141  -0.13894
  39   42051.0    237.8   0.426184097   3.33654   1.22150  -1.22983  -0.57619
  40   42758.5    233.9   0.052594816   0.40494   0.52581  -0.28145  -0.22193

FINAL SINGLE POINT ENERGY     -4618.878236936510

DIPOLE MOMENT
-------------
                                X             Y             Z
Electronic contribution:    -11.17017      -1.21267       9.93530
Nuclear contribution   :      9.34962       2.26265     -10.43918
                        -----------------------------------------
Total Dipole Moment    :     -1.82055       1.04998      -0.50388
                        -----------------------------------------
Magnitude (a.u.)       :      2.16120
Magnitude (Debye)      :      5.49332

Rotational constants in cm-1:     0.001620     0.001388     0.001306
Rotational constants in MHz :    48.556439    41.614861    39.141753

                             ****ORCA TERMINATED NORMALLY****
TOTAL RUN TIME: 0 days 12 hours 19 minutes 29 seconds 11 msec
