                         Program Version 5.0.2 -  RELEASE  -
|  1> %maxcore 16000
|  2> %pal
|  3>  nprocs= 8
|  4> end
|  5> ! RI-B2PLYP  def2-SVP def2/J def2-SVP/C RIJCOSX CPCM TIGHTSCF
|  6>
|  7> %TDDFT
|  8>     DCORR      4
|  9>     NROOTS    40
| 10>     TDA       FALSE
| 11> END
| 12>
| 13> %CPCM
| 14>     SMD		TRUE
| 15>     SMDsolvent	"CH2Cl2"
| 16> END
| 17>
| 18> * xyz 1 1
| 19> P                   1.15653200    0.85817700    1.66642400
| 20> P                   0.00802600   -1.81067000   -0.84647500
| 21> O                   2.28029400   -0.07925400   -0.85943500
| 22> C                   2.18357000   -0.36536700    2.55862700
| 23> C                   1.62348100   -0.98500900    3.68834300
| 24> H                   0.61974900   -0.70279800    4.02439100
| 25> C                   2.33937700   -1.94843000    4.39348800
| 26> H                   1.89667900   -2.41281200    5.27822700
| 27> C                   3.61496500   -2.32477600    3.96732800
| 28> H                   4.17444600   -3.08619500    4.51630500
| 29> C                   4.16912300   -1.72874500    2.83574900
| 30> H                   5.16523400   -2.02090600    2.49395100
| 31> C                   3.46172600   -0.74978100    2.13588300
| 32> H                   3.91913400   -0.28083500    1.26043600
| 33> C                   2.32365100    1.78461000    0.59343600
| 34> C                   2.73537600    3.10250600    0.83351000
| 35> H                   2.44761800    3.60300100    1.76110300
| 36> C                   3.48813700    3.79090100   -0.11631900
| 37> H                   3.79610800    4.81969800    0.08218100
| 38> C                   3.84940000    3.18024300   -1.31809900
| 39> H                   4.43851500    3.73975700   -2.04771600
| 40> C                   3.47332600    1.86246700   -1.59139900
| 41> C                   3.86947700    1.07636500   -2.83758800
| 42> C                   2.68013000    0.19692300   -3.20751700
| 43> C                   2.28463900   -0.12950400   -4.50846300
| 44> H                   2.81278100    0.30280300   -5.36097900
| 45> C                   1.22868700   -1.01461700   -4.73435200
| 46> H                   0.94221100   -1.26372400   -5.75837400
| 47> C                   0.53874300   -1.58805700   -3.66659100
| 48> H                  -0.28860900   -2.27687400   -3.85692200
| 49> C                   0.89225300   -1.26987200   -2.35012900
| 50> C                  -1.39736400   -2.79040900   -1.48091400
| 51> C                  -2.51895100   -2.07657300   -1.93432200
| 52> H                  -2.49853600   -0.98097100   -1.92899300
| 53> C                  -3.64904300   -2.74879400   -2.39231800
| 54> H                  -4.51396000   -2.18055100   -2.74386900
| 55> C                  -3.67778500   -4.14510000   -2.39104000
| 56> H                  -4.56691700   -4.67487300   -2.74116800
| 57> C                  -2.56985200   -4.86178300   -1.93960300
| 58> H                  -2.58794200   -5.95433300   -1.93915400
| 59> C                  -1.43249500   -4.19074800   -1.48780300
| 60> H                  -0.56980400   -4.76457800   -1.13778400
| 61> C                   1.12775700   -3.04030400   -0.08910100
| 62> C                   0.81553000   -3.49824700    1.20004800
| 63> H                  -0.07008600   -3.10962100    1.71479900
| 64> C                   1.62007300   -4.44646600    1.82749400
| 65> H                   1.36319800   -4.79848100    2.82971300
| 66> C                   2.75932300   -4.93272200    1.18376500
| 67> H                   3.39641600   -5.66905500    1.67984700
| 68> C                   3.08635700   -4.46979500   -0.09035000
| 69> H                   3.97868700   -4.84488400   -0.59748800
| 70> C                   2.27371400   -3.53174000   -0.72783400
| 71> H                   2.53554300   -3.18595700   -1.73206000
| 72> C                   1.96145400   -0.38412700   -2.16080600
| 73> C                   2.71327600    1.20147200   -0.62133000
| 74> C                   4.28952600    1.98573300   -3.98246100
| 75> H                   3.48369100    2.66909500   -4.28786800
| 76> H                   4.58794500    1.39763400   -4.86032800
| 77> H                   5.16256800    2.59100300   -3.70475800
| 78> C                   5.04613800    0.15255600   -2.46737300
| 79> H                   5.34466800   -0.45683600   -3.33297400
| 80> H                   4.78865700   -0.53430200   -1.64736500
| 81> H                   5.91703900    0.74455800   -2.14975600
| 82> C                   0.72626100    2.07767700    2.96022300
| 83> C                   1.57535200    2.37665700    4.03606600
| 84> H                   2.53521200    1.86110000    4.13647700
| 85> C                   1.20405900    3.33442400    4.97769100
| 86> H                   1.87104100    3.56065900    5.81308300
| 87> C                  -0.01390600    4.00599600    4.85311600
| 88> H                  -0.30233200    4.75561900    5.59393200
| 89> C                  -0.86324200    3.71581200    3.78568300
| 90> H                  -1.81932900    4.23524900    3.68735700
| 91> C                  -0.49725400    2.75221100    2.84603200
| 92> H                  -1.16760600    2.51318300    2.01320900
| 93> Cu                 -0.56304600    0.03999100    0.42417400
| 94> C                  -3.45491400    0.63111800    0.31227000
| 95> C                  -4.83182800    0.45955400    0.40087400
| 96> C                  -5.35034200   -0.56889000    1.20017000
| 97> C                  -4.45077600   -1.38977400    1.89648300
| 98> C                  -3.09328200   -1.13979800    1.74862200
| 99> C                  -2.83812200    1.67338600   -0.54046200
|100> C                  -3.57770500    2.68893300   -1.13620400
|101> C                  -2.92761300    3.63744300   -1.93862100
|102> C                  -1.53998400    3.52661200   -2.11153700
|103> C                  -0.88592800    2.48075200   -1.47439300
|104> H                  -5.52567300    1.09332300   -0.15159400
|105> H                  -4.78503700   -2.20540200    2.53684800
|106> H                  -2.36494400   -1.76337400    2.27741100
|107> H                  -4.65433000    2.77776300   -0.98964100
|108> H                  -0.97241000    4.22924200   -2.72077200
|109> H                   0.19843000    2.36779100   -1.58747000
|110> N                  -2.59106400   -0.16773400    0.98210900
|111> N                  -1.49890400    1.57388600   -0.70887900
|112> O                  -3.68870700    4.58863000   -2.48270700
|113> O                  -6.67830900   -0.69370900    1.23323000
|114> C                  -3.06538700    5.56519900   -3.30163800
|115> H                  -3.85957900    6.23621900   -3.64254100
|116> H                  -2.32129500    6.14629700   -2.73709000
|117> H                  -2.58278300    5.10595700   -4.17707000
|118> C                  -7.23965100   -1.74013000    2.00937500
|119> H                  -8.32476800   -1.66707400    1.88866700
|120> H                  -6.90394300   -2.72610400    1.65509300
|121> H                  -6.98891200   -1.63009600    3.07483000
|122> *
|123>
|124>                          ****END OF INPUT****

CARTESIAN COORDINATES (ANGSTROEM)
---------------------------------
  P      1.156532    0.858177    1.666424
  P      0.008026   -1.810670   -0.846475
  O      2.280294   -0.079254   -0.859435
  C      2.183570   -0.365367    2.558627
  C      1.623481   -0.985009    3.688343
  H      0.619749   -0.702798    4.024391
  C      2.339377   -1.948430    4.393488
  H      1.896679   -2.412812    5.278227
  C      3.614965   -2.324776    3.967328
  H      4.174446   -3.086195    4.516305
  C      4.169123   -1.728745    2.835749
  H      5.165234   -2.020906    2.493951
  C      3.461726   -0.749781    2.135883
  H      3.919134   -0.280835    1.260436
  C      2.323651    1.784610    0.593436
  C      2.735376    3.102506    0.833510
  H      2.447618    3.603001    1.761103
  C      3.488137    3.790901   -0.116319
  H      3.796108    4.819698    0.082181
  C      3.849400    3.180243   -1.318099
  H      4.438515    3.739757   -2.047716
  C      3.473326    1.862467   -1.591399
  C      3.869477    1.076365   -2.837588
  C      2.680130    0.196923   -3.207517
  C      2.284639   -0.129504   -4.508463
  H      2.812781    0.302803   -5.360979
  C      1.228687   -1.014617   -4.734352
  H      0.942211   -1.263724   -5.758374
  C      0.538743   -1.588057   -3.666591
  H     -0.288609   -2.276874   -3.856922
  C      0.892253   -1.269872   -2.350129
  C     -1.397364   -2.790409   -1.480914
  C     -2.518951   -2.076573   -1.934322
  H     -2.498536   -0.980971   -1.928993
  C     -3.649043   -2.748794   -2.392318
  H     -4.513960   -2.180551   -2.743869
  C     -3.677785   -4.145100   -2.391040
  H     -4.566917   -4.674873   -2.741168
  C     -2.569852   -4.861783   -1.939603
  H     -2.587942   -5.954333   -1.939154
  C     -1.432495   -4.190748   -1.487803
  H     -0.569804   -4.764578   -1.137784
  C      1.127757   -3.040304   -0.089101
  C      0.815530   -3.498247    1.200048
  H     -0.070086   -3.109621    1.714799
  C      1.620073   -4.446466    1.827494
  H      1.363198   -4.798481    2.829713
  C      2.759323   -4.932722    1.183765
  H      3.396416   -5.669055    1.679847
  C      3.086357   -4.469795   -0.090350
  H      3.978687   -4.844884   -0.597488
  C      2.273714   -3.531740   -0.727834
  H      2.535543   -3.185957   -1.732060
  C      1.961454   -0.384127   -2.160806
  C      2.713276    1.201472   -0.621330
  C      4.289526    1.985733   -3.982461
  H      3.483691    2.669095   -4.287868
  H      4.587945    1.397634   -4.860328
  H      5.162568    2.591003   -3.704758
  C      5.046138    0.152556   -2.467373
  H      5.344668   -0.456836   -3.332974
  H      4.788657   -0.534302   -1.647365
  H      5.917039    0.744558   -2.149756
  C      0.726261    2.077677    2.960223
  C      1.575352    2.376657    4.036066
  H      2.535212    1.861100    4.136477
  C      1.204059    3.334424    4.977691
  H      1.871041    3.560659    5.813083
  C     -0.013906    4.005996    4.853116
  H     -0.302332    4.755619    5.593932
  C     -0.863242    3.715812    3.785683
  H     -1.819329    4.235249    3.687357
  C     -0.497254    2.752211    2.846032
  H     -1.167606    2.513183    2.013209
  Cu    -0.563046    0.039991    0.424174
  C     -3.454914    0.631118    0.312270
  C     -4.831828    0.459554    0.400874
  C     -5.350342   -0.568890    1.200170
  C     -4.450776   -1.389774    1.896483
  C     -3.093282   -1.139798    1.748622
  C     -2.838122    1.673386   -0.540462
  C     -3.577705    2.688933   -1.136204
  C     -2.927613    3.637443   -1.938621
  C     -1.539984    3.526612   -2.111537
  C     -0.885928    2.480752   -1.474393
  H     -5.525673    1.093323   -0.151594
  H     -4.785037   -2.205402    2.536848
  H     -2.364944   -1.763374    2.277411
  H     -4.654330    2.777763   -0.989641
  H     -0.972410    4.229242   -2.720772
  H      0.198430    2.367791   -1.587470
  N     -2.591064   -0.167734    0.982109
  N     -1.498904    1.573886   -0.708879
  O     -3.688707    4.588630   -2.482707
  O     -6.678309   -0.693709    1.233230
  C     -3.065387    5.565199   -3.301638
  H     -3.859579    6.236219   -3.642541
  H     -2.321295    6.146297   -2.737090
  H     -2.582783    5.105957   -4.177070
  C     -7.239651   -1.740130    2.009375
  H     -8.324768   -1.667074    1.888667
  H     -6.903943   -2.726104    1.655093
  H     -6.988912   -1.630096    3.074830

 Total Charge           Charge          ....    1
 Multiplicity           Mult            ....    1
 Number of Electrons    NEL             ....  446
 Basis Dimension        Dim             .... 1071

ORBITAL ENERGIES
----------------

  NO   OCC          E(Eh)            E(eV)
   0   2.0000    -325.428238     -8855.3526
   1   2.0000     -78.289896     -2130.3764
   2   2.0000     -78.286065     -2130.2721
   3   2.0000     -39.649961     -1078.9303
   4   2.0000     -34.698126      -944.1840
   5   2.0000     -34.698032      -944.1815
   6   2.0000     -34.697731      -944.1733
   7   2.0000     -19.794353      -538.6317
   8   2.0000     -19.781257      -538.2754
   9   2.0000     -19.781146      -538.2724
  10   2.0000     -14.875263      -404.7765
  11   2.0000     -14.875194      -404.7746
  12   2.0000     -10.728098      -291.9264
  13   2.0000     -10.728033      -291.9246
  14   2.0000     -10.709708      -291.4260
  15   2.0000     -10.708093      -291.3820
  16   2.0000     -10.698961      -291.1335
  17   2.0000     -10.698582      -291.1232
  18   2.0000     -10.689518      -290.8766
  19   2.0000     -10.688972      -290.8617
  20   2.0000     -10.686154      -290.7850
  21   2.0000     -10.686130      -290.7844
  22   2.0000     -10.659785      -290.0675
  23   2.0000     -10.651317      -289.8371
  24   2.0000     -10.650528      -289.8156
  25   2.0000     -10.650384      -289.8117
  26   2.0000     -10.650215      -289.8071
  27   2.0000     -10.649550      -289.7890
  28   2.0000     -10.649298      -289.7821
  29   2.0000     -10.648424      -289.7583
  30   2.0000     -10.648311      -289.7553
  31   2.0000     -10.647399      -289.7305
  32   2.0000     -10.647115      -289.7227
  33   2.0000     -10.647071      -289.7215
  34   2.0000     -10.646387      -289.7029
  35   2.0000     -10.646272      -289.6998
  36   2.0000     -10.645777      -289.6863
  37   2.0000     -10.645607      -289.6817
  38   2.0000     -10.644908      -289.6627
  39   2.0000     -10.644872      -289.6617
  40   2.0000     -10.644503      -289.6517
  41   2.0000     -10.643894      -289.6351
  42   2.0000     -10.643418      -289.6221
  43   2.0000     -10.643167      -289.6153
  44   2.0000     -10.642631      -289.6007
  45   2.0000     -10.642248      -289.5903
  46   2.0000     -10.642195      -289.5889
  47   2.0000     -10.642159      -289.5879
  48   2.0000     -10.640959      -289.5552
  49   2.0000     -10.639651      -289.5196
  50   2.0000     -10.639572      -289.5175
  51   2.0000     -10.639565      -289.5173
  52   2.0000     -10.639446      -289.5141
  53   2.0000     -10.638854      -289.4979
  54   2.0000     -10.638801      -289.4965
  55   2.0000     -10.638601      -289.4910
  56   2.0000     -10.638552      -289.4897
  57   2.0000     -10.638122      -289.4780
  58   2.0000     -10.637938      -289.4730
  59   2.0000     -10.637732      -289.4674
  60   2.0000     -10.637552      -289.4625
  61   2.0000     -10.623454      -289.0789
  62   2.0000     -10.621090      -289.0146
  63   2.0000      -6.972612      -189.7344
  64   2.0000      -6.969175      -189.6409
  65   2.0000      -5.027655      -136.8095
  66   2.0000      -5.027476      -136.8046
  67   2.0000      -5.025978      -136.7638
  68   2.0000      -5.024144      -136.7139
  69   2.0000      -5.024030      -136.7108
  70   2.0000      -5.022483      -136.6687
  71   2.0000      -4.574730      -124.4847
  72   2.0000      -2.995425       -81.5097
  73   2.0000      -2.992832       -81.4391
  74   2.0000      -2.990879       -81.3860
  75   2.0000      -1.247228       -33.9388
  76   2.0000      -1.229806       -33.4647
  77   2.0000      -1.229679       -33.4613
  78   2.0000      -1.108789       -30.1717
  79   2.0000      -1.081161       -29.4199
  80   2.0000      -0.999670       -27.2024
  81   2.0000      -0.997335       -27.1389
  82   2.0000      -0.987875       -26.8814
  83   2.0000      -0.985126       -26.8066
  84   2.0000      -0.981055       -26.6959
  85   2.0000      -0.979498       -26.6535
  86   2.0000      -0.944639       -25.7049
  87   2.0000      -0.935840       -25.4655
  88   2.0000      -0.927358       -25.2347
  89   2.0000      -0.926433       -25.2095
  90   2.0000      -0.899273       -24.4704
  91   2.0000      -0.890111       -24.2211
  92   2.0000      -0.879918       -23.9438
  93   2.0000      -0.872324       -23.7372
  94   2.0000      -0.864218       -23.5166
  95   2.0000      -0.862095       -23.4588
  96   2.0000      -0.861300       -23.4372
  97   2.0000      -0.860886       -23.4259
  98   2.0000      -0.858447       -23.3595
  99   2.0000      -0.857131       -23.3237
 100   2.0000      -0.855899       -23.2902
 101   2.0000      -0.850730       -23.1495
 102   2.0000      -0.835689       -22.7402
 103   2.0000      -0.830343       -22.5948
 104   2.0000      -0.817138       -22.2355
 105   2.0000      -0.792952       -21.5773
 106   2.0000      -0.772407       -21.0183
 107   2.0000      -0.764869       -20.8131
 108   2.0000      -0.761416       -20.7192
 109   2.0000      -0.741278       -20.1712
 110   2.0000      -0.738225       -20.0881
 111   2.0000      -0.734729       -19.9930
 112   2.0000      -0.730068       -19.8662
 113   2.0000      -0.704755       -19.1774
 114   2.0000      -0.704028       -19.1576
 115   2.0000      -0.702166       -19.1069
 116   2.0000      -0.701580       -19.0910
 117   2.0000      -0.693405       -18.8685
 118   2.0000      -0.692734       -18.8503
 119   2.0000      -0.691280       -18.8107
 120   2.0000      -0.686903       -18.6916
 121   2.0000      -0.683830       -18.6080
 122   2.0000      -0.659552       -17.9473
 123   2.0000      -0.652884       -17.7659
 124   2.0000      -0.647687       -17.6245
 125   2.0000      -0.640109       -17.4182
 126   2.0000      -0.637198       -17.3390
 127   2.0000      -0.626374       -17.0445
 128   2.0000      -0.617566       -16.8048
 129   2.0000      -0.605604       -16.4793
 130   2.0000      -0.602469       -16.3940
 131   2.0000      -0.595430       -16.2025
 132   2.0000      -0.594879       -16.1875
 133   2.0000      -0.587029       -15.9739
 134   2.0000      -0.582576       -15.8527
 135   2.0000      -0.577263       -15.7081
 136   2.0000      -0.566796       -15.4233
 137   2.0000      -0.565224       -15.3805
 138   2.0000      -0.564027       -15.3480
 139   2.0000      -0.560439       -15.2503
 140   2.0000      -0.559327       -15.2200
 141   2.0000      -0.558368       -15.1940
 142   2.0000      -0.552432       -15.0324
 143   2.0000      -0.550885       -14.9903
 144   2.0000      -0.541060       -14.7230
 145   2.0000      -0.540538       -14.7088
 146   2.0000      -0.538794       -14.6613
 147   2.0000      -0.537649       -14.6302
 148   2.0000      -0.530107       -14.4249
 149   2.0000      -0.529463       -14.4074
 150   2.0000      -0.527493       -14.3538
 151   2.0000      -0.524934       -14.2842
 152   2.0000      -0.523234       -14.2379
 153   2.0000      -0.523044       -14.2328
 154   2.0000      -0.520332       -14.1590
 155   2.0000      -0.520172       -14.1546
 156   2.0000      -0.514130       -13.9902
 157   2.0000      -0.511852       -13.9282
 158   2.0000      -0.504796       -13.7362
 159   2.0000      -0.500972       -13.6322
 160   2.0000      -0.499321       -13.5872
 161   2.0000      -0.499144       -13.5824
 162   2.0000      -0.497906       -13.5487
 163   2.0000      -0.495099       -13.4723
 164   2.0000      -0.492764       -13.4088
 165   2.0000      -0.487370       -13.2620
 166   2.0000      -0.483594       -13.1593
 167   2.0000      -0.482236       -13.1223
 168   2.0000      -0.476378       -12.9629
 169   2.0000      -0.471036       -12.8175
 170   2.0000      -0.468344       -12.7443
 171   2.0000      -0.462229       -12.5779
 172   2.0000      -0.460844       -12.5402
 173   2.0000      -0.458873       -12.4866
 174   2.0000      -0.457966       -12.4619
 175   2.0000      -0.456175       -12.4131
 176   2.0000      -0.446041       -12.1374
 177   2.0000      -0.444403       -12.0928
 178   2.0000      -0.440390       -11.9836
 179   2.0000      -0.438284       -11.9263
 180   2.0000      -0.434832       -11.8324
 181   2.0000      -0.432853       -11.7785
 182   2.0000      -0.429664       -11.6918
 183   2.0000      -0.425863       -11.5883
 184   2.0000      -0.425195       -11.5701
 185   2.0000      -0.424501       -11.5513
 186   2.0000      -0.421317       -11.4646
 187   2.0000      -0.418324       -11.3832
 188   2.0000      -0.417935       -11.3726
 189   2.0000      -0.417863       -11.3706
 190   2.0000      -0.416735       -11.3399
 191   2.0000      -0.415674       -11.3111
 192   2.0000      -0.413455       -11.2507
 193   2.0000      -0.410326       -11.1655
 194   2.0000      -0.409267       -11.1367
 195   2.0000      -0.403809       -10.9882
 196   2.0000      -0.398264       -10.8373
 197   2.0000      -0.397240       -10.8095
 198   2.0000      -0.393735       -10.7141
 199   2.0000      -0.390488       -10.6257
 200   2.0000      -0.383757       -10.4426
 201   2.0000      -0.381136       -10.3712
 202   2.0000      -0.356436        -9.6991
 203   2.0000      -0.344553        -9.3758
 204   2.0000      -0.339601        -9.2410
 205   2.0000      -0.330290        -8.9876
 206   2.0000      -0.324401        -8.8274
 207   2.0000      -0.314537        -8.5590
 208   2.0000      -0.313127        -8.5206
 209   2.0000      -0.310250        -8.4423
 210   2.0000      -0.309875        -8.4321
 211   2.0000      -0.307854        -8.3771
 212   2.0000      -0.306953        -8.3526
 213   2.0000      -0.306432        -8.3384
 214   2.0000      -0.304732        -8.2922
 215   2.0000      -0.302003        -8.2179
 216   2.0000      -0.297900        -8.1063
 217   2.0000      -0.296719        -8.0741
 218   2.0000      -0.296410        -8.0657
 219   2.0000      -0.294497        -8.0137
 220   2.0000      -0.280926        -7.6444
 221   2.0000      -0.272851        -7.4246
 222   2.0000      -0.248810        -6.7705
 223   0.0000      -0.023031        -0.6267
 224   0.0000       0.005146         0.1400
 225   0.0000       0.009994         0.2720
 226   0.0000       0.011804         0.3212
 227   0.0000       0.014863         0.4044

MULLIKEN ATOMIC CHARGES
-----------------------
   0 P :    0.608594
   1 P :    0.592529
   2 O :   -0.426789
   3 C :   -0.205894
   4 C :   -0.016591
   5 H :    0.037722
   6 C :   -0.023254
   7 H :    0.034362
   8 C :   -0.016658
   9 H :    0.036195
  10 C :   -0.016954
  11 H :    0.033354
  12 C :   -0.024424
  13 H :    0.040124
  14 C :   -0.249782
  15 C :   -0.034880
  16 H :    0.044597
  17 C :   -0.002984
  18 H :    0.031204
  19 C :   -0.057421
  20 H :    0.030561
  21 C :   -0.014690
  22 C :   -0.230984
  23 C :   -0.014435
  24 C :   -0.058868
  25 H :    0.030048
  26 C :   -0.004189
  27 H :    0.031039
  28 C :   -0.034152
  29 H :    0.043123
  30 C :   -0.260750
  31 C :   -0.236184
  32 C :   -0.006505
  33 H :    0.043456
  34 C :   -0.026215
  35 H :    0.034339
  36 C :   -0.014810
  37 H :    0.037748
  38 C :   -0.019450
  39 H :    0.034514
  40 C :   -0.014397
  41 H :    0.042378
  42 C :   -0.232890
  43 C :   -0.002422
  44 H :    0.035014
  45 C :   -0.010196
  46 H :    0.033278
  47 C :   -0.018626
  48 H :    0.036443
  49 C :   -0.020986
  50 H :    0.033485
  51 C :   -0.013712
  52 H :    0.043984
  53 C :    0.238347
  54 C :    0.231262
  55 C :    0.085443
  56 H :    0.026151
  57 H :    0.039935
  58 H :    0.039308
  59 C :    0.107364
  60 H :    0.028420
  61 H :    0.034010
  62 H :    0.029387
  63 C :   -0.253761
  64 C :    0.007079
  65 H :    0.041399
  66 C :   -0.023331
  67 H :    0.036412
  68 C :   -0.011594
  69 H :    0.039507
  70 C :   -0.020735
  71 H :    0.033946
  72 C :   -0.010334
  73 H :    0.041382
  74 Cu:    0.311457
  75 C :    0.139028
  76 C :   -0.097478
  77 C :    0.312462
  78 C :   -0.156968
  79 C :    0.147060
  80 C :    0.149880
  81 C :   -0.096367
  82 C :    0.313760
  83 C :   -0.158374
  84 C :    0.143091
  85 H :    0.042375
  86 H :    0.052315
  87 H :    0.067259
  88 H :    0.041576
  89 H :    0.052472
  90 H :    0.071424
  91 N :   -0.317057
  92 N :   -0.323222
  93 O :   -0.391754
  94 O :   -0.391603
  95 C :    0.179311
  96 H :    0.060000
  97 H :    0.053113
  98 H :    0.053280
  99 C :    0.178072
 100 H :    0.060543
 101 H :    0.053370
 102 H :    0.053386
Sum of atomic charges:    1.0000000

LOEWDIN ATOMIC CHARGES
----------------------
   0 P :    0.787908
   1 P :    0.776458
   2 O :   -0.102819
   3 C :   -0.181497
   4 C :   -0.029653
   5 H :    0.036432
   6 C :   -0.029172
   7 H :    0.038594
   8 C :   -0.023571
   9 H :    0.038591
  10 C :   -0.028078
  11 H :    0.038727
  12 C :   -0.032812
  13 H :    0.035140
  14 C :   -0.200345
  15 C :   -0.020320
  16 H :    0.039575
  17 C :   -0.040036
  18 H :    0.039937
  19 C :   -0.009139
  20 H :    0.041953
  21 C :   -0.036882
  22 C :   -0.034891
  23 C :   -0.037091
  24 C :   -0.010999
  25 H :    0.041620
  26 C :   -0.039686
  27 H :    0.039639
  28 C :   -0.021797
  29 H :    0.039525
  30 C :   -0.200609
  31 C :   -0.188250
  32 C :   -0.027239
  33 H :    0.036466
  34 C :   -0.032254
  35 H :    0.038934
  36 C :   -0.021073
  37 H :    0.039487
  38 C :   -0.030866
  39 H :    0.039131
  40 C :   -0.028476
  41 H :    0.037219
  42 C :   -0.185184
  43 C :   -0.025386
  44 H :    0.035892
  45 C :   -0.026363
  46 H :    0.037915
  47 C :   -0.021490
  48 H :    0.039050
  49 C :   -0.031576
  50 H :    0.038728
  51 C :   -0.030666
  52 H :    0.036457
  53 C :    0.061875
  54 C :    0.059767
  55 C :   -0.027683
  56 H :    0.025982
  57 H :    0.029486
  58 H :    0.029219
  59 C :   -0.020816
  60 H :    0.026177
  61 H :    0.023436
  62 H :    0.026123
  63 C :   -0.192008
  64 C :   -0.019517
  65 H :    0.037931
  66 C :   -0.030955
  67 H :    0.039798
  68 C :   -0.015936
  69 H :    0.040343
  70 C :   -0.032102
  71 H :    0.039327
  72 C :   -0.026599
  73 H :    0.036043
  74 Cu:   -0.224078
  75 C :    0.037156
  76 C :   -0.051312
  77 C :    0.103491
  78 C :   -0.086774
  79 C :    0.072107
  80 C :    0.036570
  81 C :   -0.051564
  82 C :    0.103245
  83 C :   -0.087246
  84 C :    0.071306
  85 H :    0.050564
  86 H :    0.051928
  87 H :    0.041241
  88 H :    0.050548
  89 H :    0.051815
  90 H :    0.040005
  91 N :   -0.054765
  92 N :   -0.055134
  93 O :   -0.119454
  94 O :   -0.119383
  95 C :    0.107555
  96 H :    0.033859
  97 H :    0.025473
  98 H :    0.025478
  99 C :    0.107260
 100 H :    0.033945
 101 H :    0.025585
 102 H :    0.025527

  Mayer bond orders larger than 0.100000
B(  0-P ,  3-C ) :   0.9627 B(  0-P , 14-C ) :   0.9456 B(  0-P , 63-C ) :   0.9840
B(  0-P , 74-Cu) :   0.6153 B(  1-P , 30-C ) :   0.9574 B(  1-P , 31-C ) :   0.9666
B(  1-P , 42-C ) :   0.9715 B(  1-P , 74-Cu) :   0.5463 B(  2-O , 53-C ) :   0.9971
B(  2-O , 54-C ) :   0.9898 B(  3-C ,  4-C ) :   1.3631 B(  3-C , 12-C ) :   1.4106
B(  4-C ,  5-H ) :   0.9931 B(  4-C ,  6-C ) :   1.4251 B(  6-C ,  7-H ) :   0.9977
B(  6-C ,  8-C ) :   1.3696 B(  8-C ,  9-H ) :   0.9974 B(  8-C , 10-C ) :   1.3924
B( 10-C , 11-H ) :   0.9952 B( 10-C , 12-C ) :   1.3979 B( 12-C , 13-H ) :   0.9904
B( 14-C , 15-C ) :   1.4065 B( 14-C , 54-C ) :   1.3975 B( 15-C , 16-H ) :   0.9906
B( 15-C , 17-C ) :   1.3898 B( 17-C , 18-H ) :   0.9979 B( 17-C , 19-C ) :   1.3583
B( 19-C , 20-H ) :   0.9988 B( 19-C , 21-C ) :   1.4236 B( 21-C , 22-C ) :   0.9121
B( 21-C , 54-C ) :   1.3913 B( 22-C , 23-C ) :   0.9113 B( 22-C , 55-C ) :   1.1019
B( 22-C , 59-C ) :   1.0290 B( 23-C , 24-C ) :   1.4176 B( 23-C , 53-C ) :   1.3981
B( 24-C , 25-H ) :   0.9999 B( 24-C , 26-C ) :   1.3616 B( 26-C , 27-H ) :   0.9983
B( 26-C , 28-C ) :   1.3847 B( 28-C , 29-H ) :   0.9936 B( 28-C , 30-C ) :   1.4045
B( 30-C , 53-C ) :   1.3893 B( 31-C , 32-C ) :   1.3609 B( 31-C , 40-C ) :   1.3988
B( 32-C , 33-H ) :   0.9861 B( 32-C , 34-C ) :   1.4176 B( 34-C , 35-H ) :   0.9987
B( 34-C , 36-C ) :   1.3734 B( 36-C , 37-H ) :   0.9971 B( 36-C , 38-C ) :   1.3897
B( 38-C , 39-H ) :   0.9969 B( 38-C , 40-C ) :   1.3931 B( 40-C , 41-H ) :   0.9924
B( 42-C , 43-C ) :   1.3687 B( 42-C , 51-C ) :   1.3961 B( 43-C , 44-H ) :   0.9902
B( 43-C , 45-C ) :   1.4177 B( 45-C , 46-H ) :   0.9954 B( 45-C , 47-C ) :   1.3760
B( 47-C , 48-H ) :   0.9981 B( 47-C , 49-C ) :   1.3859 B( 49-C , 50-H ) :   0.9970
B( 49-C , 51-C ) :   1.3954 B( 51-C , 52-H ) :   0.9890 B( 55-C , 56-H ) :   0.9644
B( 55-C , 57-H ) :   0.9547 B( 55-C , 58-H ) :   0.9545 B( 59-C , 60-H ) :   0.9670
B( 59-C , 61-H ) :   0.9659 B( 59-C , 62-H ) :   0.9683 B( 63-C , 64-C ) :   1.3601
B( 63-C , 72-C ) :   1.3823 B( 64-C , 65-H ) :   0.9938 B( 64-C , 66-C ) :   1.4119
B( 66-C , 67-H ) :   0.9987 B( 66-C , 68-C ) :   1.3746 B( 68-C , 69-H ) :   0.9972
B( 68-C , 70-C ) :   1.3865 B( 70-C , 71-H ) :   0.9998 B( 70-C , 72-C ) :   1.3974
B( 72-C , 73-H ) :   0.9882 B( 74-Cu, 91-N ) :   0.3000 B( 74-Cu, 92-N ) :   0.2782
B( 75-C , 76-C ) :   1.4444 B( 75-C , 80-C ) :   0.9893 B( 75-C , 91-N ) :   1.3656
B( 76-C , 77-C ) :   1.3157 B( 76-C , 85-H ) :   0.9801 B( 77-C , 78-C ) :   1.3137
B( 77-C , 94-O ) :   1.1637 B( 78-C , 79-C ) :   1.4133 B( 78-C , 86-H ) :   0.9861
B( 79-C , 87-H ) :   0.9689 B( 79-C , 91-N ) :   1.4142 B( 80-C , 81-C ) :   1.4471
B( 80-C , 92-N ) :   1.3592 B( 81-C , 82-C ) :   1.3150 B( 81-C , 88-H ) :   0.9799
B( 82-C , 83-C ) :   1.3134 B( 82-C , 93-O ) :   1.1636 B( 83-C , 84-C ) :   1.4132
B( 83-C , 89-H ) :   0.9858 B( 84-C , 90-H ) :   0.9690 B( 84-C , 92-N ) :   1.4233
B( 93-O , 95-C ) :   0.8871 B( 94-O , 99-C ) :   0.8870 B( 95-C , 96-H ) :   0.9825
B( 95-C , 97-H ) :   0.9764 B( 95-C , 98-H ) :   0.9763 B( 99-C ,100-H ) :   0.9825
B( 99-C ,101-H ) :   0.9764 B( 99-C ,102-H ) :   0.9764

MP2 TOTAL ENERGY:    -4623.239343993 Eh

-----------------------------------------------------------------------------
         ABSORPTION SPECTRUM VIA TRANSITION ELECTRIC DIPOLE MOMENTS
-----------------------------------------------------------------------------
State   Energy    Wavelength  fosc         T2        TX        TY        TZ
        (cm-1)      (nm)                 (au**2)    (au)      (au)      (au)
-----------------------------------------------------------------------------
   1   18606.4    537.4   0.070394097   1.24552  -0.99989   0.47337  -0.14718
   2   19634.2    509.3   0.006059015   0.10159   0.24613  -0.18010  -0.09261
   3   27778.9    360.0   0.015130208   0.17931  -0.21397  -0.33672  -0.14194
   4   37414.4    267.3   0.182564321   1.60640  -0.46967  -0.98016   0.65199
   5   24808.4    403.1   0.004820363   0.06397   0.00271   0.23126  -0.10236
   6   30749.2    325.2   0.267457137   2.86349   0.84034   0.94314  -1.12596
   7   29915.6    334.3   0.074668996   0.82171  -0.53838  -0.48294  -0.54647
   8   34314.8    291.4   0.060595486   0.58135  -0.37880   0.33354  -0.57150
   9   29600.9    337.8   0.131052453   1.45753  -1.19544  -0.01483   0.16804
  10   34110.0    293.2   0.145508739   1.40437  -0.38597   0.48973  -1.00775
  11   36574.7    273.4   0.045249402   0.40729   0.31041   0.28295  -0.48049
  12   37558.4    266.3   0.044104191   0.38659  -0.04283  -0.58787  -0.19791
  13   35512.2    281.6   0.154583118   1.43304   0.43197  -1.11184   0.10124
  14   37071.1    269.8   0.009092289   0.08074  -0.05177   0.25697  -0.10968
  15   35927.1    278.3   0.100667796   0.92245  -0.23420  -0.56892  -0.73751
  16   39403.4    253.8   0.018178698   0.15188   0.09084  -0.26130  -0.27450
  17   40151.8    249.1   0.009123595   0.07481  -0.04901   0.20511   0.17417
  18   38895.1    257.1   0.029841324   0.25258   0.48421  -0.11928   0.06242
  19   38656.9    258.7   0.089322642   0.76069   0.22185   0.39575   0.74488
  20   29520.2    338.8   0.045471873   0.50711  -0.39081  -0.28950   0.52016
  21   27548.3    363.0   0.055136126   0.65890   0.04357  -0.73248   0.34709
  22   34170.5    292.6   0.095116515   0.91639  -0.49145  -0.75879   0.31479
  23   33734.2    296.4   0.079512451   0.77596   0.36738   0.75452  -0.26777
  24   35861.9    278.8   0.003371399   0.03095   0.16393  -0.04983  -0.03994
  25   32161.6    310.9   0.039091917   0.40015  -0.36474  -0.41710   0.30520
  26   36853.6    271.3   0.109074012   0.97435   0.65958   0.53489   0.50318
  27   34040.0    293.8   0.007778518   0.07523   0.12166  -0.16651  -0.18084
  28   35835.2    279.1   0.036120857   0.33184   0.22319   0.52321   0.09095
  29   37027.4    270.1   0.055126305   0.49013   0.48690  -0.42662   0.26657
  30   41157.5    243.0   0.009799935   0.07839  -0.05359  -0.15567   0.22646
  31   40277.2    248.3   0.014541760   0.11886   0.26151  -0.22142   0.03803
  32   39780.7    251.4   0.010920709   0.09038  -0.02976  -0.13087   0.26901
  33   34332.5    291.3   0.040847527   0.39168  -0.57399   0.18731  -0.16473
  34   37369.1    267.6   0.006338869   0.05584   0.16593  -0.10966   0.12761
  35   32660.6    306.2   0.004377718   0.04413   0.18868   0.00288   0.09230
  36   39722.7    251.7   0.035160701   0.29140  -0.04175   0.50652   0.18193
  37   38560.4    259.3   0.013167373   0.11242  -0.20827   0.25404  -0.06712
  38   40931.2    244.3   0.112422494   0.90422   0.88362  -0.35046   0.02458
  39   36994.5    270.3   0.009744201   0.08671  -0.17853   0.21561  -0.09139
  40   39129.9    255.6   0.006019636   0.05065   0.08893   0.19547   0.06729

FINAL SINGLE POINT ENERGY     -4620.404015711962

DIPOLE MOMENT
-------------
                                X             Y             Z
Electronic contribution:    -11.24698      -1.19567       9.93667
Nuclear contribution   :      9.34962       2.26265     -10.43918
                        -----------------------------------------
Total Dipole Moment    :     -1.89736       1.06698      -0.50251
                        -----------------------------------------
Magnitude (a.u.)       :      2.23405
Magnitude (Debye)      :      5.67850

Rotational constants in cm-1:     0.001620     0.001388     0.001306
Rotational constants in MHz :    48.556439    41.614861    39.141753

                             ****ORCA TERMINATED NORMALLY****
TOTAL RUN TIME: 0 days 16 hours 5 minutes 15 seconds 81 msec
