                         Program Version 5.0.2 -  RELEASE  -
|  1> %maxcore 26000
|  2> %pal
|  3>  nprocs= 8
|  4> end
|  5> ! RI-SCS-PBE-QIDH  def2-SVP def2/J def2-SVP/C RIJCOSX CPCM TIGHTSCF
|  6>
|  7> %TDDFT
|  8>     DCORR      4
|  9>     NROOTS    40
| 10>    doscs true
| 11>     TDA       FALSE
| 12> END
| 13>
| 14> %CPCM
| 15>     SMD		TRUE
| 16>     SMDsolvent	"CH2Cl2"
| 17> END
| 18>
| 19> * xyz 1 1
| 20> C                   1.46688700    2.36797500   -1.12315800
| 21> C                   1.19773800    1.47972700   -2.18209700
| 22> C                   1.96232300    1.48629300   -3.34741800
| 23> C                   3.00456100    2.40387300   -3.47233000
| 24> C                   3.27463300    3.31080600   -2.44823500
| 25> C                   2.51031500    3.28810700   -1.28191700
| 26> C                   0.84611100   -1.66525100   -2.14769300
| 27> C                   0.10003300   -0.58342000   -2.65183900
| 28> C                  -0.73570300   -0.72464900   -3.75572900
| 29> C                  -0.82548700   -1.95968900   -4.39459700
| 30> C                  -0.08100500   -3.04285100   -3.92732300
| 31> C                   0.74111100   -2.89614100   -2.81133400
| 32> C                  -1.10204500    2.72998200    0.21863200
| 33> C                  -1.56400800    3.25631800   -0.99294400
| 34> C                  -2.89299400    3.66493100   -1.11989700
| 35> C                  -3.76945500    3.55294300   -0.04138000
| 36> C                  -3.31487000    3.02915200    1.17132900
| 37> C                  -1.99195900    2.61443700    1.29855600
| 38> C                   1.37067900    3.26383900    1.60855000
| 39> C                   2.39835600    2.79465700    2.43899300
| 40> C                   3.05204500    3.66186700    3.31334100
| 41> C                   2.67399800    5.00326700    3.37535900
| 42> C                   1.64425900    5.47608500    2.55989700
| 43> C                   0.99569100    4.61324200    1.67796300
| 44> C                   2.04170400   -3.11777200    0.04572500
| 45> C                   0.89406900   -3.83573300    0.42641900
| 46> C                   1.00955400   -5.07330000    1.05168400
| 47> C                   2.27305100   -5.60479100    1.32467400
| 48> C                   3.41524900   -4.89469700    0.96013300
| 49> C                   3.30410300   -3.65723600    0.32178800
| 50> C                   3.44990100   -0.86943700   -1.13991700
| 51> C                   4.08516100    0.13537000   -0.39937500
| 52> C                   5.35098800    0.59022600   -0.76886800
| 53> C                   5.98734200    0.04570300   -1.88381200
| 54> C                   5.35844300   -0.95471200   -2.62901300
| 55> C                   4.09493600   -1.41174600   -2.26112400
| 56> H                   1.74438700    0.77488800   -4.14727200
| 57> H                   3.60775500    2.40689200   -4.38332100
| 58> H                   4.08925700    4.03075300   -2.55053600
| 59> H                   2.74391700    3.98328200   -0.47098600
| 60> H                  -1.30645400    0.14043800   -4.09971100
| 61> H                  -1.47963400   -2.07398100   -5.26174100
| 62> H                  -0.14538200   -4.01087300   -4.42864900
| 63> H                   1.30440400   -3.75667100   -2.43967600
| 64> H                  -3.24324100    4.07500600   -2.07041300
| 65> H                  -4.81034500    3.86923300   -0.14545700
| 66> H                  -3.99785900    2.93551100    2.01957900
| 67> H                  -1.64311800    2.18950600    2.24656400
| 68> H                   3.85341800    3.28696200    3.95429600
| 69> H                   3.18028500    5.68270100    4.06516400
| 70> H                   1.34552500    6.52594500    2.60900500
| 71> H                   0.19513800    4.99291500    1.03600900
| 72> H                   0.10916300   -5.62372000    1.33584200
| 73> H                   2.36471300   -6.57232800    1.82367200
| 74> H                   4.40599100   -5.30467600    1.17078800
| 75> H                   4.20977500   -3.11155900    0.04303200
| 76> H                   5.83654300    1.37855800   -0.18827300
| 77> H                   6.97670900    0.40441200   -2.17779700
| 78> H                   5.85609100   -1.38007400   -3.50384500
| 79> H                   3.60629100   -2.19459500   -2.84949300
| 80> O                   0.13316500    0.63376700   -2.00107900
| 81> P                   0.59093900    2.08373300    0.45431600
| 82> P                   1.79852300   -1.42758600   -0.59831700
| 83> H                   2.68540700    1.73836900    2.39709800
| 84> H                  -0.88518100    3.35288700   -1.84504700
| 85> H                   3.57363700    0.56917800    0.46774400
| 86> H                  -0.09854200   -3.41398900    0.23217800
| 87> Cu                  0.56426300   -0.15140400    0.85571700
| 88> C                  -0.95375900   -1.64827400    2.90368500
| 89> C                  -1.25748900   -2.43960500    4.01523800
| 90> C                  -0.23772200   -2.78212500    4.89550800
| 91> C                   1.05707200   -2.33069600    4.64059100
| 92> C                   1.27572800   -1.53941400    3.51841400
| 93> H                  -2.27949900   -2.78910500    4.17195300
| 94> H                   1.88792500   -2.58370600    5.30037000
| 95> H                   2.27661600   -1.16453200    3.28178500
| 96> N                   0.29977700   -1.19524500    2.67002100
| 97> H                  -0.44942600   -3.40283300    5.76826400
| 98> C                  -1.93163300   -1.28156700    1.88784800
| 99> C                  -3.30782600   -1.37136700    1.80446200
|100> H                  -4.06154100   -1.72406100    2.50034100
|101> N                  -1.49322600   -0.72511400    0.72215600
|102> N                  -2.49176800   -0.47304000   -0.06545300
|103> N                  -3.60770300   -0.85901500    0.58462300
|104> C                  -4.88222700   -0.69022200   -0.02160800
|105> C                  -6.00534500   -1.31703700    0.51966300
|106> C                  -5.00180300    0.11520200   -1.15820800
|107> C                  -7.24840500   -1.12609400   -0.07706500
|108> H                  -5.91859900   -1.95914200    1.39765800
|109> C                  -6.25114600    0.28862800   -1.74041900
|110> H                  -4.11935900    0.60574700   -1.57034300
|111> C                  -7.40026000   -0.32376900   -1.21578800
|112> H                  -8.12387100   -1.61866700    0.35381700
|113> H                  -6.33931000    0.92444000   -2.62558700
|114> C                  -8.73198100   -0.14022600   -1.86618700
|115> H                  -8.81512500   -0.74864900   -2.78044500
|116> H                  -9.55579200   -0.43607700   -1.20470600
|117> H                  -8.89461100    0.90203700   -2.17348600
|118> *
|119>
|120>                          ****END OF INPUT****

CARTESIAN COORDINATES (ANGSTROEM)
---------------------------------
  C      1.466887    2.367975   -1.123158
  C      1.197738    1.479727   -2.182097
  C      1.962323    1.486293   -3.347418
  C      3.004561    2.403873   -3.472330
  C      3.274633    3.310806   -2.448235
  C      2.510315    3.288107   -1.281917
  C      0.846111   -1.665251   -2.147693
  C      0.100033   -0.583420   -2.651839
  C     -0.735703   -0.724649   -3.755729
  C     -0.825487   -1.959689   -4.394597
  C     -0.081005   -3.042851   -3.927323
  C      0.741111   -2.896141   -2.811334
  C     -1.102045    2.729982    0.218632
  C     -1.564008    3.256318   -0.992944
  C     -2.892994    3.664931   -1.119897
  C     -3.769455    3.552943   -0.041380
  C     -3.314870    3.029152    1.171329
  C     -1.991959    2.614437    1.298556
  C      1.370679    3.263839    1.608550
  C      2.398356    2.794657    2.438993
  C      3.052045    3.661867    3.313341
  C      2.673998    5.003267    3.375359
  C      1.644259    5.476085    2.559897
  C      0.995691    4.613242    1.677963
  C      2.041704   -3.117772    0.045725
  C      0.894069   -3.835733    0.426419
  C      1.009554   -5.073300    1.051684
  C      2.273051   -5.604791    1.324674
  C      3.415249   -4.894697    0.960133
  C      3.304103   -3.657236    0.321788
  C      3.449901   -0.869437   -1.139917
  C      4.085161    0.135370   -0.399375
  C      5.350988    0.590226   -0.768868
  C      5.987342    0.045703   -1.883812
  C      5.358443   -0.954712   -2.629013
  C      4.094936   -1.411746   -2.261124
  H      1.744387    0.774888   -4.147272
  H      3.607755    2.406892   -4.383321
  H      4.089257    4.030753   -2.550536
  H      2.743917    3.983282   -0.470986
  H     -1.306454    0.140438   -4.099711
  H     -1.479634   -2.073981   -5.261741
  H     -0.145382   -4.010873   -4.428649
  H      1.304404   -3.756671   -2.439676
  H     -3.243241    4.075006   -2.070413
  H     -4.810345    3.869233   -0.145457
  H     -3.997859    2.935511    2.019579
  H     -1.643118    2.189506    2.246564
  H      3.853418    3.286962    3.954296
  H      3.180285    5.682701    4.065164
  H      1.345525    6.525945    2.609005
  H      0.195138    4.992915    1.036009
  H      0.109163   -5.623720    1.335842
  H      2.364713   -6.572328    1.823672
  H      4.405991   -5.304676    1.170788
  H      4.209775   -3.111559    0.043032
  H      5.836543    1.378558   -0.188273
  H      6.976709    0.404412   -2.177797
  H      5.856091   -1.380074   -3.503845
  H      3.606291   -2.194595   -2.849493
  O      0.133165    0.633767   -2.001079
  P      0.590939    2.083733    0.454316
  P      1.798523   -1.427586   -0.598317
  H      2.685407    1.738369    2.397098
  H     -0.885181    3.352887   -1.845047
  H      3.573637    0.569178    0.467744
  H     -0.098542   -3.413989    0.232178
  Cu     0.564263   -0.151404    0.855717
  C     -0.953759   -1.648274    2.903685
  C     -1.257489   -2.439605    4.015238
  C     -0.237722   -2.782125    4.895508
  C      1.057072   -2.330696    4.640591
  C      1.275728   -1.539414    3.518414
  H     -2.279499   -2.789105    4.171953
  H      1.887925   -2.583706    5.300370
  H      2.276616   -1.164532    3.281785
  N      0.299777   -1.195245    2.670021
  H     -0.449426   -3.402833    5.768264
  C     -1.931633   -1.281567    1.887848
  C     -3.307826   -1.371367    1.804462
  H     -4.061541   -1.724061    2.500341
  N     -1.493226   -0.725114    0.722156
  N     -2.491768   -0.473040   -0.065453
  N     -3.607703   -0.859015    0.584623
  C     -4.882227   -0.690222   -0.021608
  C     -6.005345   -1.317037    0.519663
  C     -5.001803    0.115202   -1.158208
  C     -7.248405   -1.126094   -0.077065
  H     -5.918599   -1.959142    1.397658
  C     -6.251146    0.288628   -1.740419
  H     -4.119359    0.605747   -1.570343
  C     -7.400260   -0.323769   -1.215788
  H     -8.123871   -1.618667    0.353817
  H     -6.339310    0.924440   -2.625587
  C     -8.731981   -0.140226   -1.866187
  H     -8.815125   -0.748649   -2.780445
  H     -9.555792   -0.436077   -1.204706
  H     -8.894611    0.902037   -2.173486

 Total Charge           Charge          ....    1
 Multiplicity           Mult            ....    1
 Number of Electrons    NEL             ....  434
 Basis Dimension        Dim             .... 1037

ORBITAL ENERGIES
----------------

  NO   OCC          E(Eh)            E(eV)
   0   2.0000    -326.529440     -8885.3178
   1   2.0000     -78.833976     -2145.1815
   2   2.0000     -78.833436     -2145.1668
   3   2.0000     -40.052773     -1089.8914
   4   2.0000     -35.015536      -952.8212
   5   2.0000     -35.015215      -952.8124
   6   2.0000     -35.014945      -952.8051
   7   2.0000     -20.067035      -546.0518
   8   2.0000     -15.221192      -414.1897
   9   2.0000     -15.183470      -413.1632
  10   2.0000     -15.157847      -412.4660
  11   2.0000     -15.131770      -411.7564
  12   2.0000     -10.918853      -297.1171
  13   2.0000     -10.916727      -297.0592
  14   2.0000     -10.910241      -296.8827
  15   2.0000     -10.905894      -296.7645
  16   2.0000     -10.900345      -296.6135
  17   2.0000     -10.892619      -296.4032
  18   2.0000     -10.888495      -296.2910
  19   2.0000     -10.869686      -295.7792
  20   2.0000     -10.859525      -295.5027
  21   2.0000     -10.859343      -295.4977
  22   2.0000     -10.855299      -295.3877
  23   2.0000     -10.854163      -295.3568
  24   2.0000     -10.854024      -295.3530
  25   2.0000     -10.853894      -295.3495
  26   2.0000     -10.853623      -295.3421
  27   2.0000     -10.853442      -295.3372
  28   2.0000     -10.853439      -295.3371
  29   2.0000     -10.852531      -295.3124
  30   2.0000     -10.851893      -295.2950
  31   2.0000     -10.851771      -295.2917
  32   2.0000     -10.850951      -295.2694
  33   2.0000     -10.850834      -295.2662
  34   2.0000     -10.849947      -295.2421
  35   2.0000     -10.849556      -295.2314
  36   2.0000     -10.849455      -295.2287
  37   2.0000     -10.848823      -295.2115
  38   2.0000     -10.848687      -295.2078
  39   2.0000     -10.848363      -295.1990
  40   2.0000     -10.847742      -295.1821
  41   2.0000     -10.846770      -295.1556
  42   2.0000     -10.846662      -295.1527
  43   2.0000     -10.845884      -295.1315
  44   2.0000     -10.845579      -295.1232
  45   2.0000     -10.845526      -295.1218
  46   2.0000     -10.844540      -295.0949
  47   2.0000     -10.844278      -295.0878
  48   2.0000     -10.844017      -295.0807
  49   2.0000     -10.843692      -295.0719
  50   2.0000     -10.843687      -295.0717
  51   2.0000     -10.842844      -295.0488
  52   2.0000     -10.842740      -295.0460
  53   2.0000     -10.842471      -295.0386
  54   2.0000     -10.842383      -295.0362
  55   2.0000     -10.842151      -295.0299
  56   2.0000     -10.841989      -295.0255
  57   2.0000     -10.841980      -295.0253
  58   2.0000     -10.840982      -294.9981
  59   2.0000     -10.840548      -294.9863
  60   2.0000     -10.838954      -294.9429
  61   2.0000     -10.823587      -294.5248
  62   2.0000      -7.170086      -195.1080
  63   2.0000      -7.169367      -195.0884
  64   2.0000      -5.167812      -140.6233
  65   2.0000      -5.167642      -140.6187
  66   2.0000      -5.167109      -140.6042
  67   2.0000      -5.166962      -140.6002
  68   2.0000      -5.166729      -140.5939
  69   2.0000      -5.166034      -140.5749
  70   2.0000      -4.737969      -128.9267
  71   2.0000      -3.120887       -84.9236
  72   2.0000      -3.118733       -84.8650
  73   2.0000      -3.116426       -84.8023
  74   2.0000      -1.356090       -36.9011
  75   2.0000      -1.320052       -35.9205
  76   2.0000      -1.182469       -32.1766
  77   2.0000      -1.152512       -31.3615
  78   2.0000      -1.072650       -29.1883
  79   2.0000      -1.063733       -28.9457
  80   2.0000      -1.061074       -28.8733
  81   2.0000      -1.059946       -28.8426
  82   2.0000      -1.055056       -28.7095
  83   2.0000      -1.054081       -28.6830
  84   2.0000      -1.051291       -28.6071
  85   2.0000      -1.034067       -28.1384
  86   2.0000      -1.005652       -27.3652
  87   2.0000      -0.970411       -26.4062
  88   2.0000      -0.965630       -26.2761
  89   2.0000      -0.964587       -26.2477
  90   2.0000      -0.954106       -25.9625
  91   2.0000      -0.949871       -25.8473
  92   2.0000      -0.934380       -25.4258
  93   2.0000      -0.933123       -25.3916
  94   2.0000      -0.931291       -25.3417
  95   2.0000      -0.928979       -25.2788
  96   2.0000      -0.928388       -25.2627
  97   2.0000      -0.927269       -25.2323
  98   2.0000      -0.925559       -25.1858
  99   2.0000      -0.924356       -25.1530
 100   2.0000      -0.923690       -25.1349
 101   2.0000      -0.906633       -24.6708
 102   2.0000      -0.877303       -23.8726
 103   2.0000      -0.838449       -22.8153
 104   2.0000      -0.823602       -22.4113
 105   2.0000      -0.819853       -22.3093
 106   2.0000      -0.814307       -22.1584
 107   2.0000      -0.796263       -21.6674
 108   2.0000      -0.788346       -21.4520
 109   2.0000      -0.783891       -21.3307
 110   2.0000      -0.772319       -21.0159
 111   2.0000      -0.766181       -20.8489
 112   2.0000      -0.761375       -20.7181
 113   2.0000      -0.760254       -20.6876
 114   2.0000      -0.759022       -20.6541
 115   2.0000      -0.754074       -20.5194
 116   2.0000      -0.753384       -20.5006
 117   2.0000      -0.748984       -20.3809
 118   2.0000      -0.748635       -20.3714
 119   2.0000      -0.733120       -19.9492
 120   2.0000      -0.731255       -19.8985
 121   2.0000      -0.709696       -19.3118
 122   2.0000      -0.708952       -19.2916
 123   2.0000      -0.705386       -19.1945
 124   2.0000      -0.682573       -18.5738
 125   2.0000      -0.668940       -18.2028
 126   2.0000      -0.654778       -17.8174
 127   2.0000      -0.652689       -17.7606
 128   2.0000      -0.646344       -17.5879
 129   2.0000      -0.640307       -17.4236
 130   2.0000      -0.637766       -17.3545
 131   2.0000      -0.635203       -17.2848
 132   2.0000      -0.629548       -17.1309
 133   2.0000      -0.625518       -17.0212
 134   2.0000      -0.614661       -16.7258
 135   2.0000      -0.614138       -16.7115
 136   2.0000      -0.610122       -16.6023
 137   2.0000      -0.604259       -16.4427
 138   2.0000      -0.599185       -16.3047
 139   2.0000      -0.594883       -16.1876
 140   2.0000      -0.589069       -16.0294
 141   2.0000      -0.588110       -16.0033
 142   2.0000      -0.586014       -15.9463
 143   2.0000      -0.584788       -15.9129
 144   2.0000      -0.576871       -15.6975
 145   2.0000      -0.574664       -15.6374
 146   2.0000      -0.571563       -15.5530
 147   2.0000      -0.569444       -15.4954
 148   2.0000      -0.567522       -15.4431
 149   2.0000      -0.565223       -15.3805
 150   2.0000      -0.562436       -15.3047
 151   2.0000      -0.555717       -15.1218
 152   2.0000      -0.553283       -15.0556
 153   2.0000      -0.552394       -15.0314
 154   2.0000      -0.547493       -14.8980
 155   2.0000      -0.546764       -14.8782
 156   2.0000      -0.545794       -14.8518
 157   2.0000      -0.544560       -14.8182
 158   2.0000      -0.542213       -14.7544
 159   2.0000      -0.541251       -14.7282
 160   2.0000      -0.540306       -14.7025
 161   2.0000      -0.532249       -14.4832
 162   2.0000      -0.531106       -14.4521
 163   2.0000      -0.530206       -14.4276
 164   2.0000      -0.527276       -14.3479
 165   2.0000      -0.517913       -14.0931
 166   2.0000      -0.511432       -13.9168
 167   2.0000      -0.500790       -13.6272
 168   2.0000      -0.496376       -13.5071
 169   2.0000      -0.495270       -13.4770
 170   2.0000      -0.493072       -13.4172
 171   2.0000      -0.490640       -13.3510
 172   2.0000      -0.488483       -13.2923
 173   2.0000      -0.485531       -13.2120
 174   2.0000      -0.484215       -13.1762
 175   2.0000      -0.480798       -13.0832
 176   2.0000      -0.477941       -13.0054
 177   2.0000      -0.475415       -12.9367
 178   2.0000      -0.473398       -12.8818
 179   2.0000      -0.468049       -12.7362
 180   2.0000      -0.460572       -12.5328
 181   2.0000      -0.460267       -12.5245
 182   2.0000      -0.458635       -12.4801
 183   2.0000      -0.456901       -12.4329
 184   2.0000      -0.455990       -12.4081
 185   2.0000      -0.453169       -12.3314
 186   2.0000      -0.452165       -12.3040
 187   2.0000      -0.443576       -12.0703
 188   2.0000      -0.442426       -12.0390
 189   2.0000      -0.441133       -12.0038
 190   2.0000      -0.436421       -11.8756
 191   2.0000      -0.435446       -11.8491
 192   2.0000      -0.434533       -11.8242
 193   2.0000      -0.430602       -11.7173
 194   2.0000      -0.428011       -11.6468
 195   2.0000      -0.402690       -10.9577
 196   2.0000      -0.396563       -10.7910
 197   2.0000      -0.395560       -10.7637
 198   2.0000      -0.387024       -10.5314
 199   2.0000      -0.363280        -9.8853
 200   2.0000      -0.357012        -9.7148
 201   2.0000      -0.353021        -9.6062
 202   2.0000      -0.348101        -9.4723
 203   2.0000      -0.344669        -9.3789
 204   2.0000      -0.342989        -9.3332
 205   2.0000      -0.340706        -9.2711
 206   2.0000      -0.338909        -9.2222
 207   2.0000      -0.336856        -9.1663
 208   2.0000      -0.334041        -9.0897
 209   2.0000      -0.331912        -9.0318
 210   2.0000      -0.330759        -9.0004
 211   2.0000      -0.329095        -8.9551
 212   2.0000      -0.328413        -8.9366
 213   2.0000      -0.315962        -8.5978
 214   2.0000      -0.309600        -8.4246
 215   2.0000      -0.307320        -8.3626
 216   2.0000      -0.283652        -7.7186
 217   0.0000      -0.001041        -0.0283
 218   0.0000       0.007097         0.1931
 219   0.0000       0.017782         0.4839
 220   0.0000       0.021505         0.5852
 221   0.0000       0.025827         0.7028

MULLIKEN ATOMIC CHARGES
-----------------------
   0 C :   -0.320677
   1 C :    0.263710
   2 C :   -0.086468
   3 C :   -0.031847
   4 C :   -0.064076
   5 C :   -0.039609
   6 C :   -0.263979
   7 C :    0.216681
   8 C :   -0.059076
   9 C :   -0.038082
  10 C :   -0.058678
  11 C :   -0.042017
  12 C :   -0.289492
  13 C :   -0.036196
  14 C :   -0.065632
  15 C :   -0.058816
  16 C :   -0.071984
  17 C :   -0.024561
  18 C :   -0.328068
  19 C :   -0.029093
  20 C :   -0.065019
  21 C :   -0.054004
  22 C :   -0.062156
  23 C :   -0.014724
  24 C :   -0.311225
  25 C :   -0.031092
  26 C :   -0.067472
  27 C :   -0.058577
  28 C :   -0.062374
  29 C :   -0.040311
  30 C :   -0.306563
  31 C :   -0.002894
  32 C :   -0.066556
  33 C :   -0.055518
  34 C :   -0.066347
  35 C :   -0.017506
  36 H :    0.085914
  37 H :    0.085933
  38 H :    0.077851
  39 H :    0.089946
  40 H :    0.077549
  41 H :    0.088780
  42 H :    0.081599
  43 H :    0.092677
  44 H :    0.078144
  45 H :    0.081098
  46 H :    0.079107
  47 H :    0.082037
  48 H :    0.079365
  49 H :    0.084869
  50 H :    0.081745
  51 H :    0.084524
  52 H :    0.079148
  53 H :    0.081897
  54 H :    0.079810
  55 H :    0.087159
  56 H :    0.079686
  57 H :    0.084713
  58 H :    0.080648
  59 H :    0.079435
  60 O :   -0.480473
  61 P :    0.634883
  62 P :    0.581883
  63 H :    0.089322
  64 H :    0.085687
  65 H :    0.071386
  66 H :    0.084428
  67 Cu:    0.440146
  68 C :    0.147765
  69 C :   -0.077403
  70 C :    0.039453
  71 C :   -0.128436
  72 C :    0.165010
  73 H :    0.090569
  74 H :    0.097732
  75 H :    0.102740
  76 N :   -0.427643
  77 H :    0.100522
  78 C :    0.106592
  79 C :    0.156590
  80 H :    0.135746
  81 N :   -0.326581
  82 N :    0.036261
  83 N :   -0.323014
  84 C :    0.194699
  85 C :   -0.089610
  86 C :   -0.056931
  87 C :   -0.052747
  88 H :    0.086970
  89 C :   -0.045535
  90 H :    0.089330
  91 C :   -0.178605
  92 H :    0.074303
  93 H :    0.073098
  94 C :    0.000169
  95 H :    0.085200
  96 H :    0.068478
  97 H :    0.074681
Sum of atomic charges:    1.0000000

LOEWDIN ATOMIC CHARGES
----------------------
   0 C :   -0.216436
   1 C :    0.065896
   2 C :   -0.065094
   3 C :   -0.007225
   4 C :   -0.054381
   5 C :   -0.015900
   6 C :   -0.204228
   7 C :    0.061457
   8 C :   -0.043942
   9 C :   -0.011442
  10 C :   -0.042312
  11 C :   -0.016975
  12 C :   -0.188126
  13 C :   -0.033625
  14 C :   -0.039141
  15 C :   -0.028638
  16 C :   -0.040211
  17 C :   -0.032043
  18 C :   -0.201715
  19 C :   -0.029991
  20 C :   -0.038988
  21 C :   -0.021103
  22 C :   -0.037302
  23 C :   -0.024584
  24 C :   -0.193725
  25 C :   -0.032738
  26 C :   -0.037340
  27 C :   -0.029556
  28 C :   -0.037341
  29 C :   -0.037169
  30 C :   -0.201517
  31 C :   -0.023509
  32 C :   -0.039080
  33 C :   -0.020600
  34 C :   -0.039461
  35 C :   -0.022938
  36 H :    0.052358
  37 H :    0.050718
  38 H :    0.046940
  39 H :    0.046782
  40 H :    0.054563
  41 H :    0.051652
  42 H :    0.049115
  43 H :    0.047515
  44 H :    0.046290
  45 H :    0.046416
  46 H :    0.046366
  47 H :    0.043908
  48 H :    0.047343
  49 H :    0.048351
  50 H :    0.047733
  51 H :    0.045335
  52 H :    0.046851
  53 H :    0.047104
  54 H :    0.047066
  55 H :    0.044016
  56 H :    0.047025
  57 H :    0.048212
  58 H :    0.047275
  59 H :    0.044834
  60 O :   -0.121812
  61 P :    0.786558
  62 P :    0.776397
  63 H :    0.044306
  64 H :    0.043430
  65 H :    0.040557
  66 H :    0.043418
  67 Cu:   -0.226010
  68 C :    0.038216
  69 C :   -0.035391
  70 C :    0.033280
  71 C :   -0.051030
  72 C :    0.068142
  73 H :    0.057564
  74 H :    0.056863
  75 H :    0.047722
  76 N :   -0.050086
  77 H :    0.059523
  78 C :   -0.058923
  79 C :    0.054056
  80 H :    0.069439
  81 N :   -0.018531
  82 N :   -0.048450
  83 N :    0.091836
  84 C :    0.004942
  85 C :   -0.033433
  86 C :   -0.026980
  87 C :   -0.029168
  88 H :    0.054092
  89 C :   -0.025969
  90 H :    0.048724
  91 C :   -0.030993
  92 H :    0.048171
  93 H :    0.048214
  94 C :   -0.050327
  95 H :    0.047269
  96 H :    0.039013
  97 H :    0.042631

  Mayer bond orders larger than 0.100000
B(  0-C ,  1-C ) :   1.3842 B(  0-C ,  5-C ) :   1.4304 B(  0-C , 61-P ) :   0.9488
B(  1-C ,  2-C ) :   1.3998 B(  1-C , 60-O ) :   0.9672 B(  2-C ,  3-C ) :   1.3765
B(  2-C , 36-H ) :   0.9935 B(  3-C ,  4-C ) :   1.3908 B(  3-C , 37-H ) :   0.9904
B(  4-C ,  5-C ) :   1.4052 B(  4-C , 38-H ) :   0.9977 B(  5-C , 39-H ) :   0.9856
B(  6-C ,  7-C ) :   1.3790 B(  6-C , 11-C ) :   1.4136 B(  6-C , 62-P ) :   0.9552
B(  7-C ,  8-C ) :   1.4486 B(  7-C , 60-O ) :   0.9134 B(  8-C ,  9-C ) :   1.3681
B(  8-C , 40-H ) :   0.9988 B(  9-C , 10-C ) :   1.3878 B(  9-C , 41-H ) :   0.9900
B( 10-C , 11-C ) :   1.4189 B( 10-C , 42-H ) :   0.9966 B( 11-C , 43-H ) :   0.9806
B( 12-C , 13-C ) :   1.4215 B( 12-C , 17-C ) :   1.3680 B( 12-C , 61-P ) :   0.9686
B( 13-C , 14-C ) :   1.4071 B( 13-C , 64-H ) :   0.9855 B( 14-C , 15-C ) :   1.4033
B( 14-C , 44-H ) :   0.9937 B( 15-C , 16-C ) :   1.3798 B( 15-C , 45-H ) :   0.9951
B( 16-C , 17-C ) :   1.4381 B( 16-C , 46-H ) :   0.9963 B( 17-C , 47-H ) :   0.9875
B( 18-C , 19-C ) :   1.3850 B( 18-C , 23-C ) :   1.3798 B( 18-C , 61-P ) :   0.9766
B( 19-C , 20-C ) :   1.4169 B( 19-C , 63-H ) :   0.9844 B( 20-C , 21-C ) :   1.3958
B( 20-C , 48-H ) :   0.9971 B( 21-C , 22-C ) :   1.3883 B( 21-C , 49-H ) :   0.9936
B( 22-C , 23-C ) :   1.4239 B( 22-C , 50-H ) :   0.9954 B( 23-C , 51-H ) :   0.9916
B( 24-C , 25-C ) :   1.3597 B( 24-C , 29-C ) :   1.4214 B( 24-C , 62-P ) :   0.9632
B( 25-C , 26-C ) :   1.4473 B( 25-C , 66-H ) :   0.9872 B( 26-C , 27-C ) :   1.3757
B( 26-C , 52-H ) :   0.9953 B( 27-C , 28-C ) :   1.4096 B( 27-C , 53-H ) :   0.9944
B( 28-C , 29-C ) :   1.4031 B( 28-C , 54-H ) :   0.9933 B( 29-C , 55-H ) :   0.9882
B( 30-C , 31-C ) :   1.3910 B( 30-C , 35-C ) :   1.3667 B( 30-C , 62-P ) :   0.9884
B( 31-C , 32-C ) :   1.4072 B( 31-C , 65-H ) :   0.9889 B( 32-C , 33-C ) :   1.4011
B( 32-C , 56-H ) :   0.9971 B( 33-C , 34-C ) :   1.3806 B( 33-C , 57-H ) :   0.9938
B( 34-C , 35-C ) :   1.4314 B( 34-C , 58-H ) :   0.9955 B( 35-C , 59-H ) :   0.9928
B( 61-P , 67-Cu) :   0.5618 B( 62-P , 67-Cu) :   0.5151 B( 67-Cu, 76-N ) :   0.2636
B( 67-Cu, 81-N ) :   0.2180 B( 68-C , 69-C ) :   1.4188 B( 68-C , 76-N ) :   1.3793
B( 68-C , 78-C ) :   1.0234 B( 69-C , 70-C ) :   1.4161 B( 69-C , 73-H ) :   0.9776
B( 70-C , 71-C ) :   1.3953 B( 70-C , 77-H ) :   0.9825 B( 71-C , 72-C ) :   1.4212
B( 71-C , 74-H ) :   0.9839 B( 72-C , 75-H ) :   0.9734 B( 72-C , 76-N ) :   1.3889
B( 78-C , 79-C ) :   1.4858 B( 78-C , 81-N ) :   1.2649 B( 79-C , 80-H ) :   0.9747
B( 79-C , 83-N ) :   1.1987 B( 81-N , 82-N ) :   1.4564 B( 82-N , 83-N ) :   1.1409
B( 83-N , 84-C ) :   0.8577 B( 84-C , 85-C ) :   1.3897 B( 84-C , 86-C ) :   1.3809
B( 85-C , 87-C ) :   1.4154 B( 85-C , 88-H ) :   0.9952 B( 86-C , 89-C ) :   1.4246
B( 86-C , 90-H ) :   0.9901 B( 87-C , 91-C ) :   1.4079 B( 87-C , 92-H ) :   0.9934
B( 89-C , 91-C ) :   1.3804 B( 89-C , 93-H ) :   0.9971 B( 91-C , 94-C ) :   1.0196
B( 94-C , 95-H ) :   0.9627 B( 94-C , 96-H ) :   0.9762 B( 94-C , 97-H ) :   0.9709

MP2 TOTAL ENERGY:    -4540.367906377 Eh

-----------------------------------------------------------------------------
         ABSORPTION SPECTRUM VIA TRANSITION ELECTRIC DIPOLE MOMENTS
-----------------------------------------------------------------------------
State   Energy    Wavelength  fosc         T2        TX        TY        TZ
        (cm-1)      (nm)                 (au**2)    (au)      (au)      (au)
-----------------------------------------------------------------------------
   1   37309.3    268.0   0.712484374   6.28685   2.07945  -0.39253   1.34486
   2   32439.9    308.3   0.221836450   2.25128  -1.48004  -0.01495   0.24604
   3   36714.8    272.4   0.005708185   0.05118  -0.17103  -0.14194   0.04228
   4   32066.3    311.9   0.080381755   0.82525  -0.09686   0.85280  -0.29765
   5   36085.6    277.1   0.263157386   2.40081   0.55302  -0.88487  -1.14541
   6   36925.5    270.8   0.160994337   1.43536  -0.41512  -0.83942   0.74727
   7   36965.6    270.5   0.014134367   0.12588   0.24249   0.08867   0.24334
   8   38654.8    258.7   0.332795630   2.83432   1.48196  -0.15040   0.78454
   9   37840.0    264.3   0.010485734   0.09123  -0.18244   0.08469  -0.22532
  10   32306.1    309.5   0.022973532   0.23411  -0.41089  -0.25414   0.02621
  11   38363.7    260.7   0.043295429   0.37153  -0.50599  -0.14484  -0.30745
  12   38435.3    260.2   0.018313029   0.15686   0.23628  -0.29685   0.11364
  13   38955.2    256.7   0.013838216   0.11695  -0.10497  -0.19603   0.25981
  14   38855.6    257.4   0.006935846   0.05877   0.00337  -0.23664   0.05250
  15   39269.6    254.6   0.003004941   0.02519   0.09432  -0.00345  -0.12761
  16   37971.3    263.4   0.075255052   0.65246   0.08243   0.77693  -0.20505
  17   37853.4    264.2   0.044427311   0.38638  -0.16840   0.25989   0.53897
  18   40577.2    246.4   0.001164974   0.00945  -0.01954   0.02004   0.09310
  19   43958.4    227.5   0.022777659   0.17059   0.10833   0.39159   0.07424
  20   38682.9    258.5   0.010102319   0.08598   0.25705  -0.13865   0.02603
  21   43279.0    231.1   0.017953819   0.13657   0.35039   0.11577   0.01992
  22   44652.2    224.0   0.074917753   0.55235   0.26459   0.68807  -0.09438
  23   44660.1    223.9   0.043308422   0.31925  -0.43768  -0.34257  -0.10166
  24   46361.8    215.7   0.038230977   0.27148  -0.16294   0.14636  -0.47276
  25   41519.7    240.8   0.125702933   0.99670  -0.50286  -0.57197  -0.64551
  26   36496.9    274.0   0.077571818   0.69972   0.18462  -0.69422   0.42860
  27   35715.4    280.0   0.030736935   0.28332   0.34180  -0.38460   0.13629
  28   44235.2    226.1   0.133577275   0.99412  -0.56380   0.60017  -0.56219
  29   43094.2    232.0   0.137257361   1.04856   0.29637   0.91920  -0.34029
  30   43271.5    231.1   0.184798658   1.40596  -1.14930   0.29155   0.00749
  31   42694.7    234.2   0.284127288   2.19086  -1.06878   1.00247   0.20885
  32   41481.5    241.1   0.271773007   2.15689  -0.74450   0.93641  -0.85191
  33   45761.7    218.5   0.305558444   2.19820   0.06366   1.22400  -0.83425
  34   45171.5    221.4   0.202694873   1.47725  -0.95552  -0.16918  -0.73185
  35   43992.3    227.3   0.151608004   1.13454   1.02328  -0.10166   0.27766
  36   42525.3    235.2   0.264068037   2.04430  -1.31689  -0.55319   0.06383
  37   45474.9    219.9   0.101491115   0.73474  -0.84824   0.12143  -0.02172
  38   44991.2    222.3   0.131350093   0.96112   0.71210   0.67296   0.03422
  39   46177.6    216.6   0.347442281   2.47701   1.48166   0.51485   0.12887
  40   45310.6    220.7   0.042113155   0.30598  -0.18109  -0.44124   0.28016

FINAL SINGLE POINT ENERGY     -4537.163685280983

DIPOLE MOMENT
-------------
                                X             Y             Z
Electronic contribution:     14.17547      -2.84052      11.14404
Nuclear contribution   :    -15.34854       1.07561      -9.10706
                        -----------------------------------------
Total Dipole Moment    :     -1.17307      -1.76491       2.03697
                        -----------------------------------------
Magnitude (a.u.)       :      2.93943
Magnitude (Debye)      :      7.47144

Rotational constants in cm-1:     0.001847     0.001372     0.001226
Rotational constants in MHz :    55.376394    41.117827    36.746550

                             ****ORCA TERMINATED NORMALLY****
TOTAL RUN TIME: 0 days 16 hours 17 minutes 14 seconds 298 msec
