                         Program Version 5.0.4 -  RELEASE  -
|  1> %maxcore 8000
|  2> %pal
|  3>  nprocs 8
|  4> end
|  5> ! RI-SOS-wPBEPP86 def2-SVP def2/J def2-SVP/C RIJCOSX CPCM TIGHTSCF
|  6>
|  7> %TDDFT
|  8>     DCORR     1
|  9>     NROOTS    40
| 10>     doscs     TRUE
| 11>     TDA       FALSE
| 12> END
| 13>
| 14> %CPCM
| 15>     SMD		TRUE
| 16>     SMDsolvent	"CH2Cl2"
| 17> END
| 18>
| 19> * xyz 1 1
| 20> C                   1.30904400    2.46660000   -1.01391400
| 21> C                   1.13716900    1.59170300   -2.10342800
| 22> C                   1.94802200    1.67402700   -3.23346100
| 23> C                   2.93429900    2.65699700   -3.29281800
| 24> C                   3.10247100    3.55512100   -2.24043500
| 25> C                   2.29693100    3.45404700   -1.10749700
| 26> C                   0.99794400   -1.56086600   -2.18248400
| 27> C                   0.18975500   -0.51838200   -2.67212700
| 28> C                  -0.60046800   -0.68308500   -3.80519800
| 29> C                  -0.58458600   -1.90025200   -4.48295900
| 30> C                   0.21750100   -2.94481200   -4.02446600
| 31> C                   0.99560300   -2.77636800   -2.88085200
| 32> C                  -1.31030400    2.63809700    0.26406700
| 33> C                  -1.75628000    3.22157900   -0.92627400
| 34> C                  -3.09375800    3.59565000   -1.06608900
| 35> C                  -3.99443000    3.38816900   -0.02289600
| 36> C                  -3.55786300    2.79755400    1.16489600
| 37> C                  -2.22603800    2.41944500    1.30484700
| 38> C                   1.08102200    3.23325000    1.75470900
| 39> C                   2.03494200    2.75105700    2.66103400
| 40> C                   2.60784300    3.60288900    3.60370400
| 41> C                   2.21977600    4.94112000    3.65659900
| 42> C                   1.25922500    5.42630700    2.76764100
| 43> C                   0.69117600    4.57852500    1.81937300
| 44> C                   2.24963600   -2.97356900    0.00000600
| 45> C                   1.14279100   -3.76564300    0.35197800
| 46> C                   1.32459700   -5.00541500    0.95513600
| 47> C                   2.61399400   -5.46350800    1.23764900
| 48> C                   3.71558100   -4.67902300    0.90392400
| 49> C                   3.53836800   -3.43953100    0.28573100
| 50> C                   3.52142600   -0.61640000   -1.13257300
| 51> C                   4.06166700    0.44990700   -0.40431800
| 52> C                   5.28637000    1.00486200   -0.77288400
| 53> C                   5.97576300    0.49863500   -1.87344000
| 54> C                   5.44142500   -0.56294600   -2.60692700
| 55> C                   4.21853300   -1.11846200   -2.24100100
| 56> H                   1.80959400    0.96852200   -4.05582800
| 57> H                   3.57417800    2.71945500   -4.17571100
| 58> H                   3.87159500    4.32770500   -2.29412400
| 59> H                   2.45379000    4.13821300   -0.26926000
| 60> H                  -1.22266500    0.14985800   -4.13777300
| 61> H                  -1.20279200   -2.03197000   -5.37325000
| 62> H                   0.23288500   -3.89867900   -4.55501100
| 63> H                   1.60429800   -3.60749400   -2.51301100
| 64> H                  -3.43028300    4.05968600   -1.99618400
| 65> H                  -5.04049100    3.68310700   -0.13424200
| 66> H                  -4.26074500    2.63143900    1.98495900
| 67> H                  -1.88783100    1.94763900    2.23456100
| 68> H                   3.35132200    3.21957500    4.30586800
| 69> H                   2.66223600    5.60875000    4.39900700
| 70> H                   0.95087300    6.47297000    2.81398200
| 71> H                  -0.06077100    4.96252900    1.12321100
| 72> H                   0.45628900   -5.61615700    1.21414000
| 73> H                   2.75778300   -6.43430400    1.71664600
| 74> H                   4.72565300   -5.03384000    1.12028600
| 75> H                   4.41091700   -2.83344300    0.02674700
| 76> H                   5.69705600    1.84210700   -0.20400100
| 77> H                   6.93348200    0.93505500   -2.16546400
| 78> H                   5.98120600   -0.95766400   -3.47047800
| 79> H                   3.79939400   -1.94532500   -2.82290100
| 80> O                   0.12086800    0.67596800   -1.98399700
| 81> P                   0.40609300    2.07527400    0.52168800
| 82> P                   1.91045700   -1.29350900   -0.61724700
| 83> H                   2.31873000    1.69308000    2.62699600
| 84> H                  -1.05457900    3.39219400   -1.74761300
| 85> H                   3.50197700    0.85513800    0.44635500
| 86> H                   0.12989800   -3.39992400    0.14729700
| 87> Cu                  0.54472000   -0.15761000    0.81312200
| 88> C                  -0.83714200   -1.88853600    2.75749000
| 89> C                  -1.06887700   -2.79637300    3.79510200
| 90> C                  -0.01741400   -3.14129100    4.63639300
| 91> C                   1.23878600   -2.57778700    4.41382800
| 92> C                   1.38503500   -1.67609500    3.36575800
| 93> H                  -2.05905000   -3.23715400    3.92571500
| 94> H                   2.09371800   -2.83066300    5.04172400
| 95> H                   2.35437200   -1.21216900    3.15498000
| 96> N                   0.37683800   -1.32348700    2.56085200
| 97> H                  -0.17288900   -3.85095900    5.45099200
| 98> C                  -1.84459000   -1.50405600    1.77806400
| 99> C                  -3.21804000   -1.63661400    1.69766400
|100> H                  -3.96062800   -2.03984600    2.37800000
|101> N                  -1.43787800   -0.86309600    0.64284500
|102> N                  -2.45206500   -0.60032800   -0.12083900
|103> N                  -3.54614200   -1.06218300    0.51129000
|104> C                  -4.83230900   -0.88730200   -0.06838700
|105> C                  -5.90259000   -1.68112300    0.34469600
|106> C                  -5.01205700    0.09329700   -1.04634300
|107> C                  -7.15860800   -1.47963000   -0.21782100
|108> H                  -5.76157100   -2.46622200    1.09012400
|109> C                  -6.27358200    0.27353300   -1.59894100
|110> H                  -4.16544000    0.70875200   -1.35259900
|111> C                  -7.37226600   -0.50276700   -1.19985000
|112> H                  -7.99341300   -2.10353900    0.11036000
|113> H                  -6.41279700    1.04760400   -2.35838600
|114> C                  -8.71693500   -0.31287600   -1.82235600
|115> H                  -8.80348900   -0.88600900   -2.75844300
|116> H                  -9.52655300   -0.65330700   -1.16526700
|117> H                  -8.90393000    0.73745900   -2.07989200
|118> *
|119>
|120>                          ****END OF INPUT****

CARTESIAN COORDINATES (ANGSTROEM)
---------------------------------
  C      1.309044    2.466600   -1.013914
  C      1.137169    1.591703   -2.103428
  C      1.948022    1.674027   -3.233461
  C      2.934299    2.656997   -3.292818
  C      3.102471    3.555121   -2.240435
  C      2.296931    3.454047   -1.107497
  C      0.997944   -1.560866   -2.182484
  C      0.189755   -0.518382   -2.672127
  C     -0.600468   -0.683085   -3.805198
  C     -0.584586   -1.900252   -4.482959
  C      0.217501   -2.944812   -4.024466
  C      0.995603   -2.776368   -2.880852
  C     -1.310304    2.638097    0.264067
  C     -1.756280    3.221579   -0.926274
  C     -3.093758    3.595650   -1.066089
  C     -3.994430    3.388169   -0.022896
  C     -3.557863    2.797554    1.164896
  C     -2.226038    2.419445    1.304847
  C      1.081022    3.233250    1.754709
  C      2.034942    2.751057    2.661034
  C      2.607843    3.602889    3.603704
  C      2.219776    4.941120    3.656599
  C      1.259225    5.426307    2.767641
  C      0.691176    4.578525    1.819373
  C      2.249636   -2.973569    0.000006
  C      1.142791   -3.765643    0.351978
  C      1.324597   -5.005415    0.955136
  C      2.613994   -5.463508    1.237649
  C      3.715581   -4.679023    0.903924
  C      3.538368   -3.439531    0.285731
  C      3.521426   -0.616400   -1.132573
  C      4.061667    0.449907   -0.404318
  C      5.286370    1.004862   -0.772884
  C      5.975763    0.498635   -1.873440
  C      5.441425   -0.562946   -2.606927
  C      4.218533   -1.118462   -2.241001
  H      1.809594    0.968522   -4.055828
  H      3.574178    2.719455   -4.175711
  H      3.871595    4.327705   -2.294124
  H      2.453790    4.138213   -0.269260
  H     -1.222665    0.149858   -4.137773
  H     -1.202792   -2.031970   -5.373250
  H      0.232885   -3.898679   -4.555011
  H      1.604298   -3.607494   -2.513011
  H     -3.430283    4.059686   -1.996184
  H     -5.040491    3.683107   -0.134242
  H     -4.260745    2.631439    1.984959
  H     -1.887831    1.947639    2.234561
  H      3.351322    3.219575    4.305868
  H      2.662236    5.608750    4.399007
  H      0.950873    6.472970    2.813982
  H     -0.060771    4.962529    1.123211
  H      0.456289   -5.616157    1.214140
  H      2.757783   -6.434304    1.716646
  H      4.725653   -5.033840    1.120286
  H      4.410917   -2.833443    0.026747
  H      5.697056    1.842107   -0.204001
  H      6.933482    0.935055   -2.165464
  H      5.981206   -0.957664   -3.470478
  H      3.799394   -1.945325   -2.822901
  O      0.120868    0.675968   -1.983997
  P      0.406093    2.075274    0.521688
  P      1.910457   -1.293509   -0.617247
  H      2.318730    1.693080    2.626996
  H     -1.054579    3.392194   -1.747613
  H      3.501977    0.855138    0.446355
  H      0.129898   -3.399924    0.147297
  Cu     0.544720   -0.157610    0.813122
  C     -0.837142   -1.888536    2.757490
  C     -1.068877   -2.796373    3.795102
  C     -0.017414   -3.141291    4.636393
  C      1.238786   -2.577787    4.413828
  C      1.385035   -1.676095    3.365758
  H     -2.059050   -3.237154    3.925715
  H      2.093718   -2.830663    5.041724
  H      2.354372   -1.212169    3.154980
  N      0.376838   -1.323487    2.560852
  H     -0.172889   -3.850959    5.450992
  C     -1.844590   -1.504056    1.778064
  C     -3.218040   -1.636614    1.697664
  H     -3.960628   -2.039846    2.378000
  N     -1.437878   -0.863096    0.642845
  N     -2.452065   -0.600328   -0.120839
  N     -3.546142   -1.062183    0.511290
  C     -4.832309   -0.887302   -0.068387
  C     -5.902590   -1.681123    0.344696
  C     -5.012057    0.093297   -1.046343
  C     -7.158608   -1.479630   -0.217821
  H     -5.761571   -2.466222    1.090124
  C     -6.273582    0.273533   -1.598941
  H     -4.165440    0.708752   -1.352599
  C     -7.372266   -0.502767   -1.199850
  H     -7.993413   -2.103539    0.110360
  H     -6.412797    1.047604   -2.358386
  C     -8.716935   -0.312876   -1.822356
  H     -8.803489   -0.886009   -2.758443
  H     -9.526553   -0.653307   -1.165267
  H     -8.903930    0.737459   -2.079892

 Total Charge           Charge          ....    1
 Multiplicity           Mult            ....    1
 Number of Electrons    NEL             ....  434
 Basis Dimension        Dim             .... 1037

ORBITAL ENERGIES
----------------

  NO   OCC          E(Eh)            E(eV)
   0   2.0000    -326.666448     -8889.0459
   1   2.0000     -78.912935     -2147.3301
   2   2.0000     -78.912452     -2147.3170
   3   2.0000     -40.121764     -1091.7687
   4   2.0000     -35.075587      -954.4552
   5   2.0000     -35.075313      -954.4478
   6   2.0000     -35.075033      -954.4402
   7   2.0000     -20.122507      -547.5613
   8   2.0000     -15.271604      -415.5615
   9   2.0000     -15.236074      -414.5947
  10   2.0000     -15.210166      -413.8897
  11   2.0000     -15.182436      -413.1351
  12   2.0000     -10.965894      -298.3971
  13   2.0000     -10.963302      -298.3266
  14   2.0000     -10.957337      -298.1643
  15   2.0000     -10.953277      -298.0538
  16   2.0000     -10.946226      -297.8620
  17   2.0000     -10.938960      -297.6642
  18   2.0000     -10.936104      -297.5865
  19   2.0000     -10.916283      -297.0472
  20   2.0000     -10.905774      -296.7612
  21   2.0000     -10.905583      -296.7560
  22   2.0000     -10.901444      -296.6434
  23   2.0000     -10.900565      -296.6194
  24   2.0000     -10.900560      -296.6193
  25   2.0000     -10.900477      -296.6171
  26   2.0000     -10.899842      -296.5998
  27   2.0000     -10.899474      -296.5898
  28   2.0000     -10.899404      -296.5879
  29   2.0000     -10.899389      -296.5875
  30   2.0000     -10.898323      -296.5585
  31   2.0000     -10.898176      -296.5544
  32   2.0000     -10.897244      -296.5291
  33   2.0000     -10.897123      -296.5258
  34   2.0000     -10.896646      -296.5128
  35   2.0000     -10.895938      -296.4935
  36   2.0000     -10.895787      -296.4894
  37   2.0000     -10.895436      -296.4799
  38   2.0000     -10.895048      -296.4693
  39   2.0000     -10.894993      -296.4678
  40   2.0000     -10.894292      -296.4488
  41   2.0000     -10.893251      -296.4204
  42   2.0000     -10.893026      -296.4143
  43   2.0000     -10.892520      -296.4006
  44   2.0000     -10.892015      -296.3868
  45   2.0000     -10.891559      -296.3744
  46   2.0000     -10.891030      -296.3600
  47   2.0000     -10.890553      -296.3470
  48   2.0000     -10.890222      -296.3380
  49   2.0000     -10.890028      -296.3327
  50   2.0000     -10.889944      -296.3304
  51   2.0000     -10.889087      -296.3071
  52   2.0000     -10.889062      -296.3065
  53   2.0000     -10.888804      -296.2994
  54   2.0000     -10.888713      -296.2969
  55   2.0000     -10.888250      -296.2844
  56   2.0000     -10.888143      -296.2814
  57   2.0000     -10.888024      -296.2782
  58   2.0000     -10.887290      -296.2582
  59   2.0000     -10.886917      -296.2481
  60   2.0000     -10.885201      -296.2014
  61   2.0000     -10.868709      -295.7526
  62   2.0000      -7.216088      -196.3597
  63   2.0000      -7.215428      -196.3418
  64   2.0000      -5.209200      -141.7495
  65   2.0000      -5.209032      -141.7450
  66   2.0000      -5.208559      -141.7321
  67   2.0000      -5.208440      -141.7289
  68   2.0000      -5.208244      -141.7235
  69   2.0000      -5.207598      -141.7059
  70   2.0000      -4.783811      -130.1741
  71   2.0000      -3.164049       -86.0982
  72   2.0000      -3.161732       -86.0351
  73   2.0000      -3.159227       -85.9669
  74   2.0000      -1.396721       -38.0067
  75   2.0000      -1.359650       -36.9980
  76   2.0000      -1.221899       -33.2496
  77   2.0000      -1.191431       -32.4205
  78   2.0000      -1.111857       -30.2552
  79   2.0000      -1.103238       -30.0206
  80   2.0000      -1.100252       -29.9394
  81   2.0000      -1.099272       -29.9127
  82   2.0000      -1.094222       -29.7753
  83   2.0000      -1.093345       -29.7514
  84   2.0000      -1.090247       -29.6671
  85   2.0000      -1.072670       -29.1888
  86   2.0000      -1.043891       -28.4057
  87   2.0000      -1.008562       -27.4444
  88   2.0000      -1.004501       -27.3339
  89   2.0000      -1.003470       -27.3058
  90   2.0000      -0.991900       -26.9910
  91   2.0000      -0.988089       -26.8873
  92   2.0000      -0.972603       -26.4659
  93   2.0000      -0.970929       -26.4203
  94   2.0000      -0.969256       -26.3748
  95   2.0000      -0.967208       -26.3191
  96   2.0000      -0.966295       -26.2942
  97   2.0000      -0.965207       -26.2646
  98   2.0000      -0.963618       -26.2214
  99   2.0000      -0.962252       -26.1842
 100   2.0000      -0.961805       -26.1721
 101   2.0000      -0.944597       -25.7038
 102   2.0000      -0.914727       -24.8910
 103   2.0000      -0.875688       -23.8287
 104   2.0000      -0.861305       -23.4373
 105   2.0000      -0.857683       -23.3387
 106   2.0000      -0.850798       -23.1514
 107   2.0000      -0.833207       -22.6727
 108   2.0000      -0.824888       -22.4463
 109   2.0000      -0.820140       -22.3172
 110   2.0000      -0.809095       -22.0166
 111   2.0000      -0.802951       -21.8494
 112   2.0000      -0.798155       -21.7189
 113   2.0000      -0.797177       -21.6923
 114   2.0000      -0.795360       -21.6429
 115   2.0000      -0.791522       -21.5384
 116   2.0000      -0.790108       -21.4999
 117   2.0000      -0.785431       -21.3727
 118   2.0000      -0.784984       -21.3605
 119   2.0000      -0.769392       -20.9362
 120   2.0000      -0.767459       -20.8836
 121   2.0000      -0.746111       -20.3027
 122   2.0000      -0.745202       -20.2780
 123   2.0000      -0.741777       -20.1848
 124   2.0000      -0.718519       -19.5519
 125   2.0000      -0.704917       -19.1818
 126   2.0000      -0.691081       -18.8053
 127   2.0000      -0.689183       -18.7536
 128   2.0000      -0.682293       -18.5661
 129   2.0000      -0.677873       -18.4459
 130   2.0000      -0.673573       -18.3289
 131   2.0000      -0.670453       -18.2440
 132   2.0000      -0.666021       -18.1233
 133   2.0000      -0.661382       -17.9971
 134   2.0000      -0.649979       -17.6868
 135   2.0000      -0.649672       -17.6785
 136   2.0000      -0.645012       -17.5517
 137   2.0000      -0.639290       -17.3960
 138   2.0000      -0.633392       -17.2355
 139   2.0000      -0.629698       -17.1349
 140   2.0000      -0.624842       -17.0028
 141   2.0000      -0.623880       -16.9766
 142   2.0000      -0.621138       -16.9020
 143   2.0000      -0.620218       -16.8770
 144   2.0000      -0.610804       -16.6208
 145   2.0000      -0.608714       -16.5640
 146   2.0000      -0.605468       -16.4756
 147   2.0000      -0.603545       -16.4233
 148   2.0000      -0.601639       -16.3714
 149   2.0000      -0.599717       -16.3191
 150   2.0000      -0.597038       -16.2462
 151   2.0000      -0.590247       -16.0614
 152   2.0000      -0.588077       -16.0024
 153   2.0000      -0.587216       -15.9790
 154   2.0000      -0.583118       -15.8675
 155   2.0000      -0.581946       -15.8356
 156   2.0000      -0.579900       -15.7799
 157   2.0000      -0.579334       -15.7645
 158   2.0000      -0.576948       -15.6996
 159   2.0000      -0.575659       -15.6645
 160   2.0000      -0.574976       -15.6459
 161   2.0000      -0.566727       -15.4214
 162   2.0000      -0.565571       -15.3900
 163   2.0000      -0.564441       -15.3592
 164   2.0000      -0.561602       -15.2820
 165   2.0000      -0.554355       -15.0848
 166   2.0000      -0.546954       -14.8834
 167   2.0000      -0.534982       -14.5576
 168   2.0000      -0.530166       -14.4265
 169   2.0000      -0.529308       -14.4032
 170   2.0000      -0.527522       -14.3546
 171   2.0000      -0.525082       -14.2882
 172   2.0000      -0.521731       -14.1970
 173   2.0000      -0.520784       -14.1712
 174   2.0000      -0.519123       -14.1261
 175   2.0000      -0.515964       -14.0401
 176   2.0000      -0.512502       -13.9459
 177   2.0000      -0.508502       -13.8370
 178   2.0000      -0.507020       -13.7967
 179   2.0000      -0.501868       -13.6565
 180   2.0000      -0.494049       -13.4438
 181   2.0000      -0.493803       -13.4371
 182   2.0000      -0.491197       -13.3662
 183   2.0000      -0.489880       -13.3303
 184   2.0000      -0.488876       -13.3030
 185   2.0000      -0.487493       -13.2654
 186   2.0000      -0.485299       -13.2057
 187   2.0000      -0.479662       -13.0523
 188   2.0000      -0.476199       -12.9580
 189   2.0000      -0.475867       -12.9490
 190   2.0000      -0.470906       -12.8140
 191   2.0000      -0.469515       -12.7761
 192   2.0000      -0.468810       -12.7570
 193   2.0000      -0.464889       -12.6503
 194   2.0000      -0.461171       -12.5491
 195   2.0000      -0.437835       -11.9141
 196   2.0000      -0.434423       -11.8212
 197   2.0000      -0.428822       -11.6688
 198   2.0000      -0.419969       -11.4279
 199   2.0000      -0.396158       -10.7800
 200   2.0000      -0.390804       -10.6343
 201   2.0000      -0.385237       -10.4828
 202   2.0000      -0.380151       -10.3444
 203   2.0000      -0.376320       -10.2402
 204   2.0000      -0.373469       -10.1626
 205   2.0000      -0.371819       -10.1177
 206   2.0000      -0.369743       -10.0612
 207   2.0000      -0.367707       -10.0058
 208   2.0000      -0.364528        -9.9193
 209   2.0000      -0.362885        -9.8746
 210   2.0000      -0.361430        -9.8350
 211   2.0000      -0.359524        -9.7831
 212   2.0000      -0.358730        -9.7615
 213   2.0000      -0.346036        -9.4161
 214   2.0000      -0.339626        -9.2417
 215   2.0000      -0.337426        -9.1818
 216   2.0000      -0.314114        -8.5475
 217   0.0000       0.019654         0.5348
 218   0.0000       0.028483         0.7751
 219   0.0000       0.038091         1.0365
 220   0.0000       0.041676         1.1341
 221   0.0000       0.045593         1.2406

MULLIKEN ATOMIC CHARGES
-----------------------
   0 C :   -0.308437
   1 C :    0.253489
   2 C :   -0.088000
   3 C :   -0.043891
   4 C :   -0.066339
   5 C :   -0.050343
   6 C :   -0.249866
   7 C :    0.199914
   8 C :   -0.063114
   9 C :   -0.047942
  10 C :   -0.064578
  11 C :   -0.052667
  12 C :   -0.272166
  13 C :   -0.045338
  14 C :   -0.071964
  15 C :   -0.068404
  16 C :   -0.079171
  17 C :   -0.036267
  18 C :   -0.315887
  19 C :   -0.031135
  20 C :   -0.073359
  21 C :   -0.062161
  22 C :   -0.069527
  23 C :   -0.022703
  24 C :   -0.296735
  25 C :   -0.034668
  26 C :   -0.075968
  27 C :   -0.067003
  28 C :   -0.070883
  29 C :   -0.048079
  30 C :   -0.292714
  31 C :   -0.004185
  32 C :   -0.070760
  33 C :   -0.064802
  34 C :   -0.073807
  35 C :   -0.027577
  36 H :    0.091073
  37 H :    0.094319
  38 H :    0.085744
  39 H :    0.092089
  40 H :    0.085376
  41 H :    0.097514
  42 H :    0.090124
  43 H :    0.097361
  44 H :    0.086430
  45 H :    0.088773
  46 H :    0.087717
  47 H :    0.089512
  48 H :    0.088118
  49 H :    0.093378
  50 H :    0.090296
  51 H :    0.088254
  52 H :    0.087118
  53 H :    0.090346
  54 H :    0.088285
  55 H :    0.090392
  56 H :    0.087296
  57 H :    0.092523
  58 H :    0.088695
  59 H :    0.083541
  60 O :   -0.464501
  61 P :    0.627841
  62 P :    0.570904
  63 H :    0.089084
  64 H :    0.090119
  65 H :    0.067929
  66 H :    0.086000
  67 Cu:    0.398710
  68 C :    0.137828
  69 C :   -0.083285
  70 C :    0.025747
  71 C :   -0.130152
  72 C :    0.143242
  73 H :    0.098669
  74 H :    0.106559
  75 H :    0.110282
  76 N :   -0.398435
  77 H :    0.110586
  78 C :    0.099383
  79 C :    0.143678
  80 H :    0.144184
  81 N :   -0.318924
  82 N :    0.038084
  83 N :   -0.307290
  84 C :    0.178948
  85 C :   -0.087888
  86 C :   -0.052996
  87 C :   -0.065874
  88 H :    0.095136
  89 C :   -0.059596
  90 H :    0.089967
  91 C :   -0.169365
  92 H :    0.082513
  93 H :    0.080935
  94 C :   -0.028181
  95 H :    0.094836
  96 H :    0.077813
  97 H :    0.080275
Sum of atomic charges:    1.0000000

LOEWDIN ATOMIC CHARGES
----------------------
   0 C :   -0.215457
   1 C :    0.065540
   2 C :   -0.067219
   3 C :   -0.008832
   4 C :   -0.055711
   5 C :   -0.017875
   6 C :   -0.203177
   7 C :    0.058684
   8 C :   -0.046440
   9 C :   -0.013675
  10 C :   -0.044346
  11 C :   -0.019977
  12 C :   -0.187216
  13 C :   -0.036506
  14 C :   -0.041311
  15 C :   -0.029299
  16 C :   -0.041927
  17 C :   -0.035224
  18 C :   -0.202777
  19 C :   -0.032057
  20 C :   -0.041559
  21 C :   -0.022253
  22 C :   -0.039702
  23 C :   -0.026096
  24 C :   -0.192576
  25 C :   -0.034266
  26 C :   -0.040145
  27 C :   -0.031807
  28 C :   -0.039948
  29 C :   -0.039572
  30 C :   -0.201521
  31 C :   -0.023891
  32 C :   -0.040869
  33 C :   -0.023044
  34 C :   -0.042178
  35 C :   -0.026131
  36 H :    0.054505
  37 H :    0.053574
  38 H :    0.049580
  39 H :    0.048202
  40 H :    0.057403
  41 H :    0.054573
  42 H :    0.051949
  43 H :    0.049540
  44 H :    0.049150
  45 H :    0.048980
  46 H :    0.049316
  47 H :    0.046113
  48 H :    0.050314
  49 H :    0.051281
  50 H :    0.050632
  51 H :    0.047515
  52 H :    0.049567
  53 H :    0.049947
  54 H :    0.049895
  55 H :    0.045751
  56 H :    0.049548
  57 H :    0.050897
  58 H :    0.050050
  59 H :    0.046653
  60 O :   -0.121135
  61 P :    0.792533
  62 P :    0.780951
  63 H :    0.045825
  64 H :    0.045374
  65 H :    0.041318
  66 H :    0.044751
  67 Cu:   -0.256769
  68 C :    0.037601
  69 C :   -0.039222
  70 C :    0.031870
  71 C :   -0.053889
  72 C :    0.064209
  73 H :    0.060387
  74 H :    0.059838
  75 H :    0.049913
  76 N :   -0.044339
  77 H :    0.062676
  78 C :   -0.059208
  79 C :    0.051327
  80 H :    0.072615
  81 N :   -0.013380
  82 N :   -0.045564
  83 N :    0.092671
  84 C :    0.001603
  85 C :   -0.034499
  86 C :   -0.027160
  87 C :   -0.032040
  88 H :    0.057167
  89 C :   -0.030584
  90 H :    0.049416
  91 C :   -0.029691
  92 H :    0.051033
  93 H :    0.050546
  94 C :   -0.058357
  95 H :    0.050730
  96 H :    0.042721
  97 H :    0.044187

  Mayer bond orders larger than 0.100000
B(  0-C ,  1-C ) :   1.3858 B(  0-C ,  5-C ) :   1.4281 B(  0-C , 61-P ) :   0.9511
B(  1-C ,  2-C ) :   1.4005 B(  1-C , 60-O ) :   0.9775 B(  2-C ,  3-C ) :   1.3795
B(  2-C , 36-H ) :   0.9916 B(  3-C ,  4-C ) :   1.3949 B(  3-C , 37-H ) :   0.9882
B(  4-C ,  5-C ) :   1.4091 B(  4-C , 38-H ) :   0.9955 B(  5-C , 39-H ) :   0.9841
B(  6-C ,  7-C ) :   1.3812 B(  6-C , 11-C ) :   1.4125 B(  6-C , 62-P ) :   0.9578
B(  7-C ,  8-C ) :   1.4523 B(  7-C , 60-O ) :   0.9247 B(  8-C ,  9-C ) :   1.3711
B(  8-C , 40-H ) :   0.9961 B(  9-C , 10-C ) :   1.3934 B(  9-C , 41-H ) :   0.9872
B( 10-C , 11-C ) :   1.4216 B( 10-C , 42-H ) :   0.9942 B( 11-C , 43-H ) :   0.9788
B( 12-C , 13-C ) :   1.4242 B( 12-C , 17-C ) :   1.3674 B( 12-C , 61-P ) :   0.9695
B( 13-C , 14-C ) :   1.4084 B( 13-C , 64-H ) :   0.9839 B( 14-C , 15-C ) :   1.4079
B( 14-C , 44-H ) :   0.9915 B( 15-C , 16-C ) :   1.3832 B( 15-C , 45-H ) :   0.9932
B( 16-C , 17-C ) :   1.4417 B( 16-C , 46-H ) :   0.9942 B( 17-C , 47-H ) :   0.9857
B( 18-C , 19-C ) :   1.3925 B( 18-C , 23-C ) :   1.3729 B( 18-C , 61-P ) :   0.9802
B( 19-C , 20-C ) :   1.4170 B( 19-C , 63-H ) :   0.9826 B( 20-C , 21-C ) :   1.4030
B( 20-C , 48-H ) :   0.9947 B( 21-C , 22-C ) :   1.3906 B( 21-C , 49-H ) :   0.9909
B( 22-C , 23-C ) :   1.4298 B( 22-C , 50-H ) :   0.9931 B( 23-C , 51-H ) :   0.9907
B( 24-C , 25-C ) :   1.3590 B( 24-C , 29-C ) :   1.4247 B( 24-C , 62-P ) :   0.9645
B( 25-C , 26-C ) :   1.4525 B( 25-C , 66-H ) :   0.9849 B( 26-C , 27-C ) :   1.3782
B( 26-C , 52-H ) :   0.9933 B( 27-C , 28-C ) :   1.4155 B( 27-C , 53-H ) :   0.9920
B( 28-C , 29-C ) :   1.4054 B( 28-C , 54-H ) :   0.9910 B( 29-C , 55-H ) :   0.9861
B( 30-C , 31-C ) :   1.3970 B( 30-C , 35-C ) :   1.3618 B( 30-C , 62-P ) :   0.9885
B( 31-C , 32-C ) :   1.4091 B( 31-C , 65-H ) :   0.9865 B( 32-C , 33-C ) :   1.4066
B( 32-C , 56-H ) :   0.9946 B( 33-C , 34-C ) :   1.3832 B( 33-C , 57-H ) :   0.9917
B( 34-C , 35-C ) :   1.4374 B( 34-C , 58-H ) :   0.9932 B( 35-C , 59-H ) :   0.9914
B( 61-P , 67-Cu) :   0.5859 B( 62-P , 67-Cu) :   0.5302 B( 67-Cu, 76-N ) :   0.2717
B( 67-Cu, 81-N ) :   0.2356 B( 68-C , 69-C ) :   1.4210 B( 68-C , 76-N ) :   1.3906
B( 68-C , 78-C ) :   1.0164 B( 69-C , 70-C ) :   1.4184 B( 69-C , 73-H ) :   0.9754
B( 70-C , 71-C ) :   1.4003 B( 70-C , 77-H ) :   0.9796 B( 71-C , 72-C ) :   1.4243
B( 71-C , 74-H ) :   0.9812 B( 72-C , 75-H ) :   0.9713 B( 72-C , 76-N ) :   1.3939
B( 78-C , 79-C ) :   1.4931 B( 78-C , 81-N ) :   1.2679 B( 79-C , 80-H ) :   0.9713
B( 79-C , 83-N ) :   1.2010 B( 81-N , 82-N ) :   1.4591 B( 82-N , 83-N ) :   1.1478
B( 83-N , 84-C ) :   0.8565 B( 84-C , 85-C ) :   1.3928 B( 84-C , 86-C ) :   1.3917
B( 85-C , 87-C ) :   1.4234 B( 85-C , 88-H ) :   0.9917 B( 86-C , 89-C ) :   1.4237
B( 86-C , 90-H ) :   0.9861 B( 87-C , 91-C ) :   1.4046 B( 87-C , 92-H ) :   0.9913
B( 89-C , 91-C ) :   1.3902 B( 89-C , 93-H ) :   0.9935 B( 91-C , 94-C ) :   1.0176
B( 94-C , 95-H ) :   0.9617 B( 94-C , 96-H ) :   0.9750 B( 94-C , 97-H ) :   0.9730

MP2 TOTAL ENERGY:    -4541.593600629 Eh

-----------------------------------------------------------------------------
         ABSORPTION SPECTRUM VIA TRANSITION ELECTRIC DIPOLE MOMENTS
-----------------------------------------------------------------------------
State   Energy    Wavelength  fosc         T2        TX        TY        TZ
        (cm-1)      (nm)                 (au**2)    (au)      (au)      (au)
-----------------------------------------------------------------------------
   1   36995.6    270.3   0.537303181   4.78128   1.77837  -0.37452   1.21590
   2   36699.8    272.5   0.362886496   3.25524  -1.79932   0.13008  -0.02763
   3   38095.4    262.5   0.062306988   0.53844   0.18209  -0.61879  -0.34984
   4   36728.4    272.3   0.203359781   1.82280   0.56215  -0.58444  -1.07945
   5   31520.3    317.3   0.068911222   0.71974   0.10773   0.61673  -0.57252
   6   37134.3    269.3   0.057922807   0.51351  -0.24599   0.67219   0.03411
   7   38546.7    259.4   0.129547507   1.10641   0.28977   0.76556  -0.66058
   8   37271.1    268.3   0.003499087   0.03091   0.07338  -0.04251   0.15400
   9   39231.3    254.9   0.247139593   2.07389   1.27158  -0.03631   0.67502
  10   39234.3    254.9   0.150242531   1.26067  -0.92631  -0.21384  -0.59740
  11   37804.5    264.5   0.029229367   0.25454   0.27809  -0.33579   0.25386
  12   38244.5    261.5   0.005740445   0.04941   0.09055   0.04493  -0.19798
  13   37960.5    263.4   0.033558435   0.29103  -0.38145  -0.35962   0.12729
  14   38348.3    260.8   0.008060690   0.06920   0.18458  -0.13797  -0.12686
  15   38220.4    261.6   0.010090432   0.08691   0.20309  -0.07290   0.20088
  16   39920.6    250.5   0.089354167   0.73687  -0.12598  -0.80742   0.26283
  17   38468.9    260.0   0.063770930   0.54574   0.44231  -0.05730  -0.58891
  18   45034.3    222.1   0.001838750   0.01344   0.11503  -0.00586   0.01324
  19   41300.4    242.1   0.060081403   0.47892   0.23876   0.64373   0.08676
  20   43672.1    229.0   0.004673092   0.03523   0.16245   0.09175   0.02051
  21   44142.5    226.5   0.049088257   0.36610  -0.11158  -0.59458   0.01116
  22   45111.6    221.7   0.037424241   0.27311  -0.51519   0.00962   0.08714
  23   46569.6    214.7   0.026613187   0.18814  -0.03117  -0.17700   0.39476
  24   38903.9    257.0   0.062186517   0.52623  -0.40658   0.02723  -0.60016
  25   43978.3    227.4   0.233740558   1.74973   0.87521   0.83993   0.52749
  26   44588.4    224.3   0.247398718   1.82663  -0.64165   0.98654  -0.66457
  27   38297.9    261.1   0.035284224   0.30331   0.01519  -0.21849  -0.50531
  28   41375.2    241.7   0.408424399   3.24973   0.90574  -1.17903   1.01944
  29   43580.4    229.5   0.259093001   1.95722   1.36875   0.25768  -0.13169
  30   45440.1    220.1   0.020280591   0.14693   0.06370   0.33822  -0.16877
  31   46714.6    214.1   0.573145579   4.03913   1.82786  -0.83069  -0.08944
  32   49516.2    202.0   0.465334713   3.09381   1.54968   0.79516   0.24501
  33   47833.6    209.1   0.340442522   2.34307  -1.07427   0.30091  -1.04808
  34   46701.8    214.1   0.753542279   5.31189   0.57254   1.99092  -1.01012
  35   47844.5    209.0   0.582674933   4.00931  -1.70073  -0.90457  -0.54643
  36   47889.9    208.8   0.105631846   0.72615   0.33882   0.75481   0.20397
  37   44750.4    223.5   0.061179947   0.45008  -0.13276   0.65739   0.01725
  38   45111.8    221.7   0.257422251   1.87859  -0.35157   1.00546   0.86258
  39   47806.1    209.2   0.195288087   1.34483   0.63182  -0.86177   0.45054
  40   44951.5    222.5   0.166640073   1.22042  -1.05416   0.30999  -0.11438

FINAL SINGLE POINT ENERGY     -4537.222370203207

DIPOLE MOMENT
-------------
                                X             Y             Z
Electronic contribution:     14.04628      -3.05742      10.44071
Nuclear contribution   :    -15.11080       1.14733      -8.51071
                        -----------------------------------------
Total Dipole Moment    :     -1.06452      -1.91009       1.93000
                        -----------------------------------------
Magnitude (a.u.)       :      2.91660
Magnitude (Debye)      :      7.41340

Rotational constants in cm-1:     0.001865     0.001382     0.001227
Rotational constants in MHz :    55.905092    41.427116    36.778899

                             ****ORCA TERMINATED NORMALLY****
TOTAL RUN TIME: 0 days 6 hours 46 minutes 11 seconds 600 msec
