                         Program Version 5.0.2 -  RELEASE  -
|  1> %maxcore 26000
|  2> %pal
|  3>  nprocs= 8
|  4> end
|  5> ! RI-B2GP-PLYP  def2-SVP def2/J def2-SVP/C RIJCOSX CPCM TIGHTSCF
|  6>
|  7> %TDDFT
|  8>     DCORR      4
|  9>     NROOTS    40
| 10>     TDA       FALSE
| 11> END
| 12>
| 13> %CPCM
| 14>     SMD		TRUE
| 15>     SMDsolvent	"CH2Cl2"
| 16> END
| 17>
| 18> * xyz 1 1
| 19> C                   1.46688700    2.36797500   -1.12315800
| 20> C                   1.19773800    1.47972700   -2.18209700
| 21> C                   1.96232300    1.48629300   -3.34741800
| 22> C                   3.00456100    2.40387300   -3.47233000
| 23> C                   3.27463300    3.31080600   -2.44823500
| 24> C                   2.51031500    3.28810700   -1.28191700
| 25> C                   0.84611100   -1.66525100   -2.14769300
| 26> C                   0.10003300   -0.58342000   -2.65183900
| 27> C                  -0.73570300   -0.72464900   -3.75572900
| 28> C                  -0.82548700   -1.95968900   -4.39459700
| 29> C                  -0.08100500   -3.04285100   -3.92732300
| 30> C                   0.74111100   -2.89614100   -2.81133400
| 31> C                  -1.10204500    2.72998200    0.21863200
| 32> C                  -1.56400800    3.25631800   -0.99294400
| 33> C                  -2.89299400    3.66493100   -1.11989700
| 34> C                  -3.76945500    3.55294300   -0.04138000
| 35> C                  -3.31487000    3.02915200    1.17132900
| 36> C                  -1.99195900    2.61443700    1.29855600
| 37> C                   1.37067900    3.26383900    1.60855000
| 38> C                   2.39835600    2.79465700    2.43899300
| 39> C                   3.05204500    3.66186700    3.31334100
| 40> C                   2.67399800    5.00326700    3.37535900
| 41> C                   1.64425900    5.47608500    2.55989700
| 42> C                   0.99569100    4.61324200    1.67796300
| 43> C                   2.04170400   -3.11777200    0.04572500
| 44> C                   0.89406900   -3.83573300    0.42641900
| 45> C                   1.00955400   -5.07330000    1.05168400
| 46> C                   2.27305100   -5.60479100    1.32467400
| 47> C                   3.41524900   -4.89469700    0.96013300
| 48> C                   3.30410300   -3.65723600    0.32178800
| 49> C                   3.44990100   -0.86943700   -1.13991700
| 50> C                   4.08516100    0.13537000   -0.39937500
| 51> C                   5.35098800    0.59022600   -0.76886800
| 52> C                   5.98734200    0.04570300   -1.88381200
| 53> C                   5.35844300   -0.95471200   -2.62901300
| 54> C                   4.09493600   -1.41174600   -2.26112400
| 55> H                   1.74438700    0.77488800   -4.14727200
| 56> H                   3.60775500    2.40689200   -4.38332100
| 57> H                   4.08925700    4.03075300   -2.55053600
| 58> H                   2.74391700    3.98328200   -0.47098600
| 59> H                  -1.30645400    0.14043800   -4.09971100
| 60> H                  -1.47963400   -2.07398100   -5.26174100
| 61> H                  -0.14538200   -4.01087300   -4.42864900
| 62> H                   1.30440400   -3.75667100   -2.43967600
| 63> H                  -3.24324100    4.07500600   -2.07041300
| 64> H                  -4.81034500    3.86923300   -0.14545700
| 65> H                  -3.99785900    2.93551100    2.01957900
| 66> H                  -1.64311800    2.18950600    2.24656400
| 67> H                   3.85341800    3.28696200    3.95429600
| 68> H                   3.18028500    5.68270100    4.06516400
| 69> H                   1.34552500    6.52594500    2.60900500
| 70> H                   0.19513800    4.99291500    1.03600900
| 71> H                   0.10916300   -5.62372000    1.33584200
| 72> H                   2.36471300   -6.57232800    1.82367200
| 73> H                   4.40599100   -5.30467600    1.17078800
| 74> H                   4.20977500   -3.11155900    0.04303200
| 75> H                   5.83654300    1.37855800   -0.18827300
| 76> H                   6.97670900    0.40441200   -2.17779700
| 77> H                   5.85609100   -1.38007400   -3.50384500
| 78> H                   3.60629100   -2.19459500   -2.84949300
| 79> O                   0.13316500    0.63376700   -2.00107900
| 80> P                   0.59093900    2.08373300    0.45431600
| 81> P                   1.79852300   -1.42758600   -0.59831700
| 82> H                   2.68540700    1.73836900    2.39709800
| 83> H                  -0.88518100    3.35288700   -1.84504700
| 84> H                   3.57363700    0.56917800    0.46774400
| 85> H                  -0.09854200   -3.41398900    0.23217800
| 86> Cu                  0.56426300   -0.15140400    0.85571700
| 87> C                  -0.95375900   -1.64827400    2.90368500
| 88> C                  -1.25748900   -2.43960500    4.01523800
| 89> C                  -0.23772200   -2.78212500    4.89550800
| 90> C                   1.05707200   -2.33069600    4.64059100
| 91> C                   1.27572800   -1.53941400    3.51841400
| 92> H                  -2.27949900   -2.78910500    4.17195300
| 93> H                   1.88792500   -2.58370600    5.30037000
| 94> H                   2.27661600   -1.16453200    3.28178500
| 95> N                   0.29977700   -1.19524500    2.67002100
| 96> H                  -0.44942600   -3.40283300    5.76826400
| 97> C                  -1.93163300   -1.28156700    1.88784800
| 98> C                  -3.30782600   -1.37136700    1.80446200
| 99> H                  -4.06154100   -1.72406100    2.50034100
|100> N                  -1.49322600   -0.72511400    0.72215600
|101> N                  -2.49176800   -0.47304000   -0.06545300
|102> N                  -3.60770300   -0.85901500    0.58462300
|103> C                  -4.88222700   -0.69022200   -0.02160800
|104> C                  -6.00534500   -1.31703700    0.51966300
|105> C                  -5.00180300    0.11520200   -1.15820800
|106> C                  -7.24840500   -1.12609400   -0.07706500
|107> H                  -5.91859900   -1.95914200    1.39765800
|108> C                  -6.25114600    0.28862800   -1.74041900
|109> H                  -4.11935900    0.60574700   -1.57034300
|110> C                  -7.40026000   -0.32376900   -1.21578800
|111> H                  -8.12387100   -1.61866700    0.35381700
|112> H                  -6.33931000    0.92444000   -2.62558700
|113> C                  -8.73198100   -0.14022600   -1.86618700
|114> H                  -8.81512500   -0.74864900   -2.78044500
|115> H                  -9.55579200   -0.43607700   -1.20470600
|116> H                  -8.89461100    0.90203700   -2.17348600
|117> *
|118>
|119>                          ****END OF INPUT****

CARTESIAN COORDINATES (ANGSTROEM)
---------------------------------
  C      1.466887    2.367975   -1.123158
  C      1.197738    1.479727   -2.182097
  C      1.962323    1.486293   -3.347418
  C      3.004561    2.403873   -3.472330
  C      3.274633    3.310806   -2.448235
  C      2.510315    3.288107   -1.281917
  C      0.846111   -1.665251   -2.147693
  C      0.100033   -0.583420   -2.651839
  C     -0.735703   -0.724649   -3.755729
  C     -0.825487   -1.959689   -4.394597
  C     -0.081005   -3.042851   -3.927323
  C      0.741111   -2.896141   -2.811334
  C     -1.102045    2.729982    0.218632
  C     -1.564008    3.256318   -0.992944
  C     -2.892994    3.664931   -1.119897
  C     -3.769455    3.552943   -0.041380
  C     -3.314870    3.029152    1.171329
  C     -1.991959    2.614437    1.298556
  C      1.370679    3.263839    1.608550
  C      2.398356    2.794657    2.438993
  C      3.052045    3.661867    3.313341
  C      2.673998    5.003267    3.375359
  C      1.644259    5.476085    2.559897
  C      0.995691    4.613242    1.677963
  C      2.041704   -3.117772    0.045725
  C      0.894069   -3.835733    0.426419
  C      1.009554   -5.073300    1.051684
  C      2.273051   -5.604791    1.324674
  C      3.415249   -4.894697    0.960133
  C      3.304103   -3.657236    0.321788
  C      3.449901   -0.869437   -1.139917
  C      4.085161    0.135370   -0.399375
  C      5.350988    0.590226   -0.768868
  C      5.987342    0.045703   -1.883812
  C      5.358443   -0.954712   -2.629013
  C      4.094936   -1.411746   -2.261124
  H      1.744387    0.774888   -4.147272
  H      3.607755    2.406892   -4.383321
  H      4.089257    4.030753   -2.550536
  H      2.743917    3.983282   -0.470986
  H     -1.306454    0.140438   -4.099711
  H     -1.479634   -2.073981   -5.261741
  H     -0.145382   -4.010873   -4.428649
  H      1.304404   -3.756671   -2.439676
  H     -3.243241    4.075006   -2.070413
  H     -4.810345    3.869233   -0.145457
  H     -3.997859    2.935511    2.019579
  H     -1.643118    2.189506    2.246564
  H      3.853418    3.286962    3.954296
  H      3.180285    5.682701    4.065164
  H      1.345525    6.525945    2.609005
  H      0.195138    4.992915    1.036009
  H      0.109163   -5.623720    1.335842
  H      2.364713   -6.572328    1.823672
  H      4.405991   -5.304676    1.170788
  H      4.209775   -3.111559    0.043032
  H      5.836543    1.378558   -0.188273
  H      6.976709    0.404412   -2.177797
  H      5.856091   -1.380074   -3.503845
  H      3.606291   -2.194595   -2.849493
  O      0.133165    0.633767   -2.001079
  P      0.590939    2.083733    0.454316
  P      1.798523   -1.427586   -0.598317
  H      2.685407    1.738369    2.397098
  H     -0.885181    3.352887   -1.845047
  H      3.573637    0.569178    0.467744
  H     -0.098542   -3.413989    0.232178
  Cu     0.564263   -0.151404    0.855717
  C     -0.953759   -1.648274    2.903685
  C     -1.257489   -2.439605    4.015238
  C     -0.237722   -2.782125    4.895508
  C      1.057072   -2.330696    4.640591
  C      1.275728   -1.539414    3.518414
  H     -2.279499   -2.789105    4.171953
  H      1.887925   -2.583706    5.300370
  H      2.276616   -1.164532    3.281785
  N      0.299777   -1.195245    2.670021
  H     -0.449426   -3.402833    5.768264
  C     -1.931633   -1.281567    1.887848
  C     -3.307826   -1.371367    1.804462
  H     -4.061541   -1.724061    2.500341
  N     -1.493226   -0.725114    0.722156
  N     -2.491768   -0.473040   -0.065453
  N     -3.607703   -0.859015    0.584623
  C     -4.882227   -0.690222   -0.021608
  C     -6.005345   -1.317037    0.519663
  C     -5.001803    0.115202   -1.158208
  C     -7.248405   -1.126094   -0.077065
  H     -5.918599   -1.959142    1.397658
  C     -6.251146    0.288628   -1.740419
  H     -4.119359    0.605747   -1.570343
  C     -7.400260   -0.323769   -1.215788
  H     -8.123871   -1.618667    0.353817
  H     -6.339310    0.924440   -2.625587
  C     -8.731981   -0.140226   -1.866187
  H     -8.815125   -0.748649   -2.780445
  H     -9.555792   -0.436077   -1.204706
  H     -8.894611    0.902037   -2.173486

 Total Charge           Charge          ....    1
 Multiplicity           Mult            ....    1
 Number of Electrons    NEL             ....  434
 Basis Dimension        Dim             .... 1037

ORBITAL ENERGIES
----------------

  NO   OCC          E(Eh)            E(eV)
   0   2.0000    -326.289290     -8878.7830
   1   2.0000     -78.716180     -2141.9761
   2   2.0000     -78.715868     -2141.9677
   3   2.0000     -39.953462     -1087.1890
   4   2.0000     -34.941170      -950.7976
   5   2.0000     -34.940893      -950.7900
   6   2.0000     -34.940641      -950.7832
   7   2.0000     -19.999951      -544.2263
   8   2.0000     -15.162526      -412.5933
   9   2.0000     -15.126636      -411.6167
  10   2.0000     -15.099631      -410.8819
  11   2.0000     -15.073371      -410.1673
  12   2.0000     -10.872894      -295.8665
  13   2.0000     -10.871003      -295.8150
  14   2.0000     -10.865268      -295.6590
  15   2.0000     -10.861823      -295.5652
  16   2.0000     -10.855250      -295.3864
  17   2.0000     -10.849196      -295.2216
  18   2.0000     -10.844139      -295.0840
  19   2.0000     -10.826028      -294.5912
  20   2.0000     -10.815872      -294.3148
  21   2.0000     -10.811797      -294.2040
  22   2.0000     -10.810589      -294.1711
  23   2.0000     -10.809873      -294.1516
  24   2.0000     -10.809420      -294.1393
  25   2.0000     -10.807688      -294.0921
  26   2.0000     -10.807555      -294.0885
  27   2.0000     -10.807157      -294.0777
  28   2.0000     -10.807035      -294.0744
  29   2.0000     -10.806719      -294.0658
  30   2.0000     -10.806137      -294.0499
  31   2.0000     -10.805925      -294.0442
  32   2.0000     -10.805876      -294.0428
  33   2.0000     -10.805282      -294.0267
  34   2.0000     -10.805261      -294.0261
  35   2.0000     -10.804668      -294.0100
  36   2.0000     -10.804437      -294.0037
  37   2.0000     -10.804117      -293.9950
  38   2.0000     -10.804080      -293.9940
  39   2.0000     -10.803666      -293.9827
  40   2.0000     -10.803202      -293.9701
  41   2.0000     -10.802937      -293.9629
  42   2.0000     -10.802135      -293.9410
  43   2.0000     -10.801793      -293.9317
  44   2.0000     -10.801675      -293.9285
  45   2.0000     -10.801388      -293.9207
  46   2.0000     -10.800731      -293.9028
  47   2.0000     -10.800328      -293.8919
  48   2.0000     -10.800042      -293.8841
  49   2.0000     -10.799919      -293.8807
  50   2.0000     -10.799879      -293.8796
  51   2.0000     -10.799260      -293.8628
  52   2.0000     -10.799057      -293.8573
  53   2.0000     -10.798798      -293.8502
  54   2.0000     -10.798708      -293.8478
  55   2.0000     -10.798405      -293.8395
  56   2.0000     -10.798301      -293.8367
  57   2.0000     -10.798296      -293.8366
  58   2.0000     -10.797363      -293.8112
  59   2.0000     -10.796936      -293.7996
  60   2.0000     -10.795119      -293.7501
  61   2.0000     -10.783031      -293.4212
  62   2.0000      -7.114065      -193.5836
  63   2.0000      -7.113518      -193.5687
  64   2.0000      -5.129405      -139.5782
  65   2.0000      -5.129241      -139.5737
  66   2.0000      -5.128887      -139.5641
  67   2.0000      -5.128734      -139.5600
  68   2.0000      -5.128272      -139.5474
  69   2.0000      -5.127757      -139.5334
  70   2.0000      -4.689753      -127.6147
  71   2.0000      -3.083443       -83.9048
  72   2.0000      -3.081292       -83.8462
  73   2.0000      -3.078921       -83.7817
  74   2.0000      -1.325008       -36.0553
  75   2.0000      -1.290012       -35.1030
  76   2.0000      -1.154497       -31.4155
  77   2.0000      -1.124822       -30.6080
  78   2.0000      -1.045646       -28.4535
  79   2.0000      -1.037012       -28.2185
  80   2.0000      -1.034580       -28.1524
  81   2.0000      -1.033257       -28.1164
  82   2.0000      -1.028403       -27.9843
  83   2.0000      -1.027512       -27.9600
  84   2.0000      -1.024635       -27.8817
  85   2.0000      -1.008102       -27.4318
  86   2.0000      -0.980754       -26.6877
  87   2.0000      -0.945832       -25.7374
  88   2.0000      -0.940973       -25.6052
  89   2.0000      -0.940041       -25.5798
  90   2.0000      -0.929933       -25.3048
  91   2.0000      -0.925306       -25.1789
  92   2.0000      -0.910470       -24.7751
  93   2.0000      -0.908977       -24.7345
  94   2.0000      -0.907174       -24.6855
  95   2.0000      -0.905000       -24.6263
  96   2.0000      -0.904412       -24.6103
  97   2.0000      -0.903257       -24.5789
  98   2.0000      -0.901674       -24.5358
  99   2.0000      -0.900365       -24.5002
 100   2.0000      -0.899735       -24.4830
 101   2.0000      -0.882868       -24.0241
 102   2.0000      -0.854629       -23.2556
 103   2.0000      -0.816297       -22.2126
 104   2.0000      -0.801797       -21.8180
 105   2.0000      -0.798146       -21.7187
 106   2.0000      -0.792902       -21.5760
 107   2.0000      -0.774563       -21.0769
 108   2.0000      -0.767360       -20.8809
 109   2.0000      -0.762941       -20.7607
 110   2.0000      -0.751261       -20.4429
 111   2.0000      -0.745243       -20.2791
 112   2.0000      -0.740702       -20.1555
 113   2.0000      -0.739615       -20.1260
 114   2.0000      -0.738380       -20.0923
 115   2.0000      -0.733541       -19.9607
 116   2.0000      -0.732882       -19.9427
 117   2.0000      -0.728558       -19.8251
 118   2.0000      -0.728194       -19.8152
 119   2.0000      -0.712782       -19.3958
 120   2.0000      -0.711155       -19.3515
 121   2.0000      -0.689784       -18.7700
 122   2.0000      -0.689043       -18.7498
 123   2.0000      -0.685697       -18.6588
 124   2.0000      -0.663099       -18.0438
 125   2.0000      -0.650051       -17.6888
 126   2.0000      -0.635825       -17.3017
 127   2.0000      -0.633795       -17.2464
 128   2.0000      -0.627486       -17.0748
 129   2.0000      -0.621321       -16.9070
 130   2.0000      -0.619588       -16.8599
 131   2.0000      -0.616140       -16.7660
 132   2.0000      -0.610539       -16.6136
 133   2.0000      -0.606943       -16.5158
 134   2.0000      -0.597217       -16.2511
 135   2.0000      -0.596215       -16.2238
 136   2.0000      -0.592738       -16.1292
 137   2.0000      -0.586801       -15.9677
 138   2.0000      -0.582184       -15.8420
 139   2.0000      -0.577987       -15.7278
 140   2.0000      -0.571472       -15.5505
 141   2.0000      -0.570562       -15.5258
 142   2.0000      -0.568522       -15.4703
 143   2.0000      -0.567353       -15.4385
 144   2.0000      -0.560471       -15.2512
 145   2.0000      -0.558340       -15.1932
 146   2.0000      -0.555121       -15.1056
 147   2.0000      -0.553516       -15.0619
 148   2.0000      -0.551305       -15.0018
 149   2.0000      -0.548724       -14.9315
 150   2.0000      -0.546280       -14.8650
 151   2.0000      -0.539657       -14.6848
 152   2.0000      -0.536747       -14.6056
 153   2.0000      -0.535723       -14.5778
 154   2.0000      -0.531518       -14.4633
 155   2.0000      -0.530161       -14.4264
 156   2.0000      -0.529901       -14.4193
 157   2.0000      -0.527721       -14.3600
 158   2.0000      -0.526526       -14.3275
 159   2.0000      -0.525236       -14.2924
 160   2.0000      -0.523544       -14.2463
 161   2.0000      -0.516065       -14.0429
 162   2.0000      -0.514909       -14.0114
 163   2.0000      -0.513921       -13.9845
 164   2.0000      -0.511119       -13.9083
 165   2.0000      -0.501029       -13.6337
 166   2.0000      -0.494488       -13.4557
 167   2.0000      -0.485149       -13.2016
 168   2.0000      -0.481804       -13.1106
 169   2.0000      -0.480105       -13.0643
 170   2.0000      -0.477485       -12.9930
 171   2.0000      -0.474571       -12.9137
 172   2.0000      -0.472175       -12.8485
 173   2.0000      -0.468521       -12.7491
 174   2.0000      -0.467263       -12.7149
 175   2.0000      -0.464341       -12.6354
 176   2.0000      -0.462192       -12.5769
 177   2.0000      -0.459608       -12.5066
 178   2.0000      -0.457568       -12.4510
 179   2.0000      -0.452379       -12.3099
 180   2.0000      -0.446130       -12.1398
 181   2.0000      -0.445385       -12.1195
 182   2.0000      -0.444673       -12.1002
 183   2.0000      -0.442846       -12.0504
 184   2.0000      -0.442186       -12.0325
 185   2.0000      -0.437639       -11.9088
 186   2.0000      -0.436965       -11.8904
 187   2.0000      -0.427964       -11.6455
 188   2.0000      -0.427299       -11.6274
 189   2.0000      -0.425686       -11.5835
 190   2.0000      -0.421885       -11.4801
 191   2.0000      -0.419917       -11.4265
 192   2.0000      -0.417993       -11.3742
 193   2.0000      -0.414636       -11.2828
 194   2.0000      -0.411538       -11.1985
 195   2.0000      -0.386318       -10.5122
 196   2.0000      -0.379294       -10.3211
 197   2.0000      -0.378166       -10.2904
 198   2.0000      -0.370657       -10.0861
 199   2.0000      -0.346908        -9.4398
 200   2.0000      -0.340332        -9.2609
 201   2.0000      -0.337663        -9.1883
 202   2.0000      -0.331913        -9.0318
 203   2.0000      -0.329791        -8.9741
 204   2.0000      -0.327976        -8.9247
 205   2.0000      -0.325899        -8.8682
 206   2.0000      -0.324093        -8.8190
 207   2.0000      -0.322211        -8.7678
 208   2.0000      -0.319431        -8.6922
 209   2.0000      -0.317397        -8.6368
 210   2.0000      -0.316379        -8.6091
 211   2.0000      -0.314430        -8.5561
 212   2.0000      -0.313884        -8.5412
 213   2.0000      -0.301418        -8.2020
 214   2.0000      -0.295296        -8.0354
 215   2.0000      -0.293342        -7.9823
 216   2.0000      -0.269573        -7.3355
 217   0.0000       0.002011         0.0547
 218   0.0000       0.009941         0.2705
 219   0.0000       0.021576         0.5871
 220   0.0000       0.025415         0.6916
 221   0.0000       0.029588         0.8051

MULLIKEN ATOMIC CHARGES
-----------------------
   0 C :   -0.284740
   1 C :    0.264606
   2 C :   -0.067561
   3 C :   -0.003470
   4 C :   -0.029975
   5 C :   -0.028590
   6 C :   -0.238410
   7 C :    0.221072
   8 C :   -0.038422
   9 C :   -0.010776
  10 C :   -0.025201
  11 C :   -0.026195
  12 C :   -0.244188
  13 C :   -0.020241
  14 C :   -0.031351
  15 C :   -0.027593
  16 C :   -0.040629
  17 C :   -0.011051
  18 C :   -0.279240
  19 C :   -0.014843
  20 C :   -0.032675
  21 C :   -0.022815
  22 C :   -0.031442
  23 C :    0.003368
  24 C :   -0.263653
  25 C :   -0.013376
  26 C :   -0.037545
  27 C :   -0.027467
  28 C :   -0.029575
  29 C :   -0.026605
  30 C :   -0.259948
  31 C :    0.012771
  32 C :   -0.034219
  33 C :   -0.024918
  34 C :   -0.035444
  35 C :    0.000299
  36 H :    0.051408
  37 H :    0.052658
  38 H :    0.043822
  39 H :    0.056896
  40 H :    0.043203
  41 H :    0.055578
  42 H :    0.047882
  43 H :    0.060398
  44 H :    0.044562
  45 H :    0.047775
  46 H :    0.045513
  47 H :    0.049056
  48 H :    0.045786
  49 H :    0.051606
  50 H :    0.048139
  51 H :    0.051391
  52 H :    0.045624
  53 H :    0.048419
  54 H :    0.046115
  55 H :    0.054085
  56 H :    0.046276
  57 H :    0.051376
  58 H :    0.046947
  59 H :    0.045243
  60 O :   -0.459824
  61 P :    0.639403
  62 P :    0.589073
  63 H :    0.056780
  64 H :    0.052217
  65 H :    0.038058
  66 H :    0.051268
  67 Cu:    0.372204
  68 C :    0.147029
  69 C :   -0.066211
  70 C :    0.064980
  71 C :   -0.082627
  72 C :    0.155095
  73 H :    0.057503
  74 H :    0.065202
  75 H :    0.073800
  76 N :   -0.363650
  77 H :    0.068835
  78 C :    0.120584
  79 C :    0.125280
  80 H :    0.106951
  81 N :   -0.285719
  82 N :    0.013970
  83 N :   -0.254974
  84 C :    0.202510
  85 C :   -0.070836
  86 C :   -0.040566
  87 C :   -0.037758
  88 H :    0.052316
  89 C :   -0.030986
  90 H :    0.055751
  91 C :   -0.126453
  92 H :    0.040725
  93 H :    0.039558
  94 C :    0.066464
  95 H :    0.056787
  96 H :    0.040541
  97 H :    0.047005
Sum of atomic charges:    1.0000000

LOEWDIN ATOMIC CHARGES
----------------------
   0 C :   -0.211537
   1 C :    0.066737
   2 C :   -0.059505
   3 C :   -0.002733
   4 C :   -0.048325
   5 C :   -0.012745
   6 C :   -0.199951
   7 C :    0.063217
   8 C :   -0.038995
   9 C :   -0.006882
  10 C :   -0.036637
  11 C :   -0.013064
  12 C :   -0.182579
  13 C :   -0.029972
  14 C :   -0.033088
  15 C :   -0.023399
  16 C :   -0.034259
  17 C :   -0.027692
  18 C :   -0.195704
  19 C :   -0.026421
  20 C :   -0.032893
  21 C :   -0.016205
  22 C :   -0.031317
  23 C :   -0.020617
  24 C :   -0.188257
  25 C :   -0.028055
  26 C :   -0.031813
  27 C :   -0.024487
  28 C :   -0.031409
  29 C :   -0.033523
  30 C :   -0.195992
  31 C :   -0.019602
  32 C :   -0.033122
  33 C :   -0.015748
  34 C :   -0.033727
  35 C :   -0.018834
  36 H :    0.045607
  37 H :    0.043769
  38 H :    0.039896
  39 H :    0.040403
  40 H :    0.047415
  41 H :    0.044821
  42 H :    0.042188
  43 H :    0.040972
  44 H :    0.039428
  45 H :    0.039630
  46 H :    0.039454
  47 H :    0.037136
  48 H :    0.040483
  49 H :    0.041563
  50 H :    0.040863
  51 H :    0.038743
  52 H :    0.039931
  53 H :    0.040261
  54 H :    0.040134
  55 H :    0.037625
  56 H :    0.040130
  57 H :    0.041390
  58 H :    0.040365
  59 H :    0.038260
  60 O :   -0.121177
  61 P :    0.794128
  62 P :    0.783587
  63 H :    0.038079
  64 H :    0.037008
  65 H :    0.035020
  66 H :    0.037083
  67 Cu:   -0.226826
  68 C :    0.040292
  69 C :   -0.029948
  70 C :    0.037407
  71 C :   -0.044002
  72 C :    0.069431
  73 H :    0.051142
  74 H :    0.050394
  75 H :    0.041629
  76 N :   -0.044201
  77 H :    0.053091
  78 C :   -0.054219
  79 C :    0.053158
  80 H :    0.063554
  81 N :   -0.016281
  82 N :   -0.051160
  83 N :    0.097119
  84 C :    0.008208
  85 C :   -0.028529
  86 C :   -0.022168
  87 C :   -0.024128
  88 H :    0.047564
  89 C :   -0.021052
  90 H :    0.042400
  91 C :   -0.024478
  92 H :    0.041293
  93 H :    0.041311
  94 C :   -0.035858
  95 H :    0.040648
  96 H :    0.032870
  97 H :    0.036278

  Mayer bond orders larger than 0.100000
B(  0-C ,  1-C ) :   1.3807 B(  0-C ,  5-C ) :   1.4234 B(  0-C , 61-P ) :   0.9533
B(  1-C ,  2-C ) :   1.3954 B(  1-C , 60-O ) :   0.9774 B(  2-C ,  3-C ) :   1.3651
B(  2-C , 36-H ) :   0.9988 B(  3-C ,  4-C ) :   1.3848 B(  3-C , 37-H ) :   0.9949
B(  4-C ,  5-C ) :   1.3933 B(  4-C , 38-H ) :   1.0017 B(  5-C , 39-H ) :   0.9910
B(  6-C ,  7-C ) :   1.3821 B(  6-C , 11-C ) :   1.4053 B(  6-C , 62-P ) :   0.9596
B(  7-C ,  8-C ) :   1.4403 B(  7-C , 60-O ) :   0.9207 B(  8-C ,  9-C ) :   1.3576
B(  8-C , 40-H ) :   1.0041 B(  9-C , 10-C ) :   1.3811 B(  9-C , 41-H ) :   0.9949
B( 10-C , 11-C ) :   1.4080 B( 10-C , 42-H ) :   1.0011 B( 11-C , 43-H ) :   0.9847
B( 12-C , 13-C ) :   1.4150 B( 12-C , 17-C ) :   1.3671 B( 12-C , 61-P ) :   0.9673
B( 13-C , 14-C ) :   1.3964 B( 13-C , 64-H ) :   0.9905 B( 14-C , 15-C ) :   1.3973
B( 14-C , 44-H ) :   0.9974 B( 15-C , 16-C ) :   1.3742 B( 15-C , 45-H ) :   0.9990
B( 16-C , 17-C ) :   1.4289 B( 16-C , 46-H ) :   1.0002 B( 17-C , 47-H ) :   0.9916
B( 18-C , 19-C ) :   1.3822 B( 18-C , 23-C ) :   1.3733 B( 18-C , 61-P ) :   0.9770
B( 19-C , 20-C ) :   1.4064 B( 19-C , 63-H ) :   0.9904 B( 20-C , 21-C ) :   1.3898
B( 20-C , 48-H ) :   1.0012 B( 21-C , 22-C ) :   1.3826 B( 21-C , 49-H ) :   0.9981
B( 22-C , 23-C ) :   1.4136 B( 22-C , 50-H ) :   0.9997 B( 23-C , 51-H ) :   0.9962
B( 24-C , 25-C ) :   1.3576 B( 24-C , 29-C ) :   1.4154 B( 24-C , 62-P ) :   0.9641
B( 25-C , 26-C ) :   1.4381 B( 25-C , 66-H ) :   0.9907 B( 26-C , 27-C ) :   1.3697
B( 26-C , 52-H ) :   0.9993 B( 27-C , 28-C ) :   1.4039 B( 27-C , 53-H ) :   0.9987
B( 28-C , 29-C ) :   1.3922 B( 28-C , 54-H ) :   0.9973 B( 29-C , 55-H ) :   0.9933
B( 30-C , 31-C ) :   1.3905 B( 30-C , 35-C ) :   1.3602 B( 30-C , 62-P ) :   0.9896
B( 31-C , 32-C ) :   1.3970 B( 31-C , 65-H ) :   0.9930 B( 32-C , 33-C ) :   1.3953
B( 32-C , 56-H ) :   1.0009 B( 33-C , 34-C ) :   1.3745 B( 33-C , 57-H ) :   0.9983
B( 34-C , 35-C ) :   1.4219 B( 34-C , 58-H ) :   0.9998 B( 35-C , 59-H ) :   0.9974
B( 61-P , 67-Cu) :   0.5841 B( 62-P , 67-Cu) :   0.5379 B( 67-Cu, 76-N ) :   0.2810
B( 67-Cu, 81-N ) :   0.2332 B( 68-C , 69-C ) :   1.4111 B( 68-C , 76-N ) :   1.3930
B( 68-C , 78-C ) :   1.0104 B( 69-C , 70-C ) :   1.4092 B( 69-C , 73-H ) :   0.9844
B( 70-C , 71-C ) :   1.3904 B( 70-C , 77-H ) :   0.9867 B( 71-C , 72-C ) :   1.4161
B( 71-C , 74-H ) :   0.9880 B( 72-C , 75-H ) :   0.9763 B( 72-C , 76-N ) :   1.3997
B( 78-C , 79-C ) :   1.4649 B( 78-C , 81-N ) :   1.2767 B( 79-C , 80-H ) :   0.9856
B( 79-C , 83-N ) :   1.2129 B( 81-N , 82-N ) :   1.4466 B( 82-N , 83-N ) :   1.1415
B( 83-N , 84-C ) :   0.8751 B( 84-C , 85-C ) :   1.3858 B( 84-C , 86-C ) :   1.3801
B( 85-C , 87-C ) :   1.3988 B( 85-C , 88-H ) :   1.0028 B( 86-C , 89-C ) :   1.4075
B( 86-C , 90-H ) :   0.9959 B( 87-C , 91-C ) :   1.4027 B( 87-C , 92-H ) :   0.9982
B( 89-C , 91-C ) :   1.3770 B( 89-C , 93-H ) :   1.0016 B( 91-C , 94-C ) :   1.0317
B( 94-C , 95-H ) :   0.9622 B( 94-C , 96-H ) :   0.9741 B( 94-C , 97-H ) :   0.9693

MP2 TOTAL ENERGY:    -4541.099049194 Eh

-----------------------------------------------------------------------------
         ABSORPTION SPECTRUM VIA TRANSITION ELECTRIC DIPOLE MOMENTS
-----------------------------------------------------------------------------
State   Energy    Wavelength  fosc         T2        TX        TY        TZ
        (cm-1)      (nm)                 (au**2)    (au)      (au)      (au)
-----------------------------------------------------------------------------
   1   36454.9    274.3   0.657111249   5.93416   1.96022  -0.42584   1.38215
   2   29193.7    342.5   0.233457737   2.63266   1.61063   0.09973  -0.16906
   3   35892.6    278.6   0.007757958   0.07116   0.23489  -0.12585  -0.01214
   4   32636.7    306.4   0.050697954   0.51140   0.02594  -0.63260   0.33249
   5   35385.5    282.6   0.262319927   2.44051  -0.55951   0.99511   1.06640
   6   35597.8    280.9   0.159026641   1.47069   0.41495   0.82400  -0.78711
   7   37273.2    268.3   0.026551030   0.23451  -0.41217  -0.07723  -0.24221
   8   31489.2    317.6   0.078262752   0.81822   0.66458  -0.28200   0.54501
   9   35668.7    280.4   0.210686649   1.94458   1.30089   0.00934   0.50218
  10   39299.1    254.5   0.030968470   0.25943   0.44530   0.02607   0.24588
  11   39415.5    253.7   0.035642615   0.29770   0.44809   0.05462   0.30649
  12   38906.6    257.0   0.027169166   0.22989  -0.18991   0.43928  -0.02936
  13   39862.0    250.9   0.021097618   0.17424  -0.04463  -0.27461   0.31119
  14   40397.9    247.5   0.004902063   0.03995   0.00170   0.19883  -0.02034
  15   34521.0    289.7   0.043673478   0.41649  -0.06365  -0.63539   0.09341
  16   40638.3    246.1   0.014534327   0.11774  -0.05145   0.33217   0.06897
  17   36139.1    276.7   0.035115798   0.31989   0.05867  -0.12662  -0.54810
  18   38043.8    262.9   0.013523965   0.11703  -0.25230  -0.20051   0.11476
  19   38982.9    256.5   0.004634112   0.03914  -0.18548  -0.00828  -0.06830
  20   45420.9    220.2   0.029911951   0.21680  -0.04885   0.45787   0.06911
  21   43280.4    231.1   0.019576979   0.14891   0.37905   0.06147   0.03814
  22   43686.7    228.9   0.108853393   0.82029  -0.38266  -0.81843   0.06355
  23   43849.0    228.1   0.023921386   0.17960   0.31490   0.20270   0.19837
  24   45586.3    219.4   0.028822842   0.20815  -0.18132   0.09242  -0.40833
  25   31745.4    315.0   0.072377632   0.75058   0.42965  -0.20565   0.72367
  26   35196.5    284.1   0.021564815   0.20171  -0.30727  -0.31203  -0.09966
  27   40321.0    248.0   0.078122158   0.63785   0.11561  -0.78628  -0.07905
  28   42528.3    235.1   0.045786197   0.35443   0.43764   0.36388   0.17462
  29   42731.0    234.0   0.154452967   1.18995  -0.08402   0.93728  -0.55173
  30   40254.7    248.4   0.187154043   1.53059  -1.14032   0.39557  -0.27161
  31   38620.9    258.9   0.127256960   1.08476  -0.81204   0.46961   0.45258
  32   41731.5    239.6   0.175678627   1.38589   0.76788  -0.85727   0.24767
  33   43553.2    229.6   0.364925680   2.75842   0.31659  -1.35403   0.90817
  34   39642.9    252.3   0.129359160   1.07426   0.81019  -0.11600   0.63591
  35   37404.0    267.4   0.037643528   0.33132   0.42736   0.31428   0.22340
  36   43188.6    231.5   0.052517434   0.40032   0.60149   0.06066  -0.18669
  37   44258.1    225.9   0.226779075   1.68689  -1.23443  -0.38007   0.13647
  38   44617.3    224.1   0.117586151   0.86762  -0.88112   0.23144  -0.19414
  39   43932.2    227.6   0.361077247   2.70578   1.45108   0.62389   0.45925
  40   42547.7    235.0   0.097543534   0.75474   0.65866   0.45591  -0.33623

FINAL SINGLE POINT ENERGY     -4537.556508121252

DIPOLE MOMENT
-------------
                                X             Y             Z
Electronic contribution:     14.17261      -2.82961      11.16283
Nuclear contribution   :    -15.34854       1.07561      -9.10706
                        -----------------------------------------
Total Dipole Moment    :     -1.17593      -1.75399       2.05576
                        -----------------------------------------
Magnitude (a.u.)       :      2.94711
Magnitude (Debye)      :      7.49096

Rotational constants in cm-1:     0.001847     0.001372     0.001226
Rotational constants in MHz :    55.376394    41.117827    36.746550

                             ****ORCA TERMINATED NORMALLY****
TOTAL RUN TIME: 0 days 17 hours 38 minutes 22 seconds 898 msec
