                         Program Version 5.0.2 -  RELEASE  -
|  1> %maxcore 26000
|  2> %pal
|  3>  nprocs= 8
|  4> end
|  5> ! RI-wB2PLYP  def2-SVP def2/J def2-SVP/C RIJCOSX CPCM TIGHTSCF
|  6>
|  7> %TDDFT
|  8>     DCORR      1
|  9>     NROOTS    40
| 10>     TDA       FALSE
| 11> END
| 12>
| 13> %CPCM
| 14>     SMD		TRUE
| 15>     SMDsolvent	"CH2Cl2"
| 16> END
| 17>
| 18> * xyz 1 1
| 19> C                   1.46688700    2.36797500   -1.12315800
| 20> C                   1.19773800    1.47972700   -2.18209700
| 21> C                   1.96232300    1.48629300   -3.34741800
| 22> C                   3.00456100    2.40387300   -3.47233000
| 23> C                   3.27463300    3.31080600   -2.44823500
| 24> C                   2.51031500    3.28810700   -1.28191700
| 25> C                   0.84611100   -1.66525100   -2.14769300
| 26> C                   0.10003300   -0.58342000   -2.65183900
| 27> C                  -0.73570300   -0.72464900   -3.75572900
| 28> C                  -0.82548700   -1.95968900   -4.39459700
| 29> C                  -0.08100500   -3.04285100   -3.92732300
| 30> C                   0.74111100   -2.89614100   -2.81133400
| 31> C                  -1.10204500    2.72998200    0.21863200
| 32> C                  -1.56400800    3.25631800   -0.99294400
| 33> C                  -2.89299400    3.66493100   -1.11989700
| 34> C                  -3.76945500    3.55294300   -0.04138000
| 35> C                  -3.31487000    3.02915200    1.17132900
| 36> C                  -1.99195900    2.61443700    1.29855600
| 37> C                   1.37067900    3.26383900    1.60855000
| 38> C                   2.39835600    2.79465700    2.43899300
| 39> C                   3.05204500    3.66186700    3.31334100
| 40> C                   2.67399800    5.00326700    3.37535900
| 41> C                   1.64425900    5.47608500    2.55989700
| 42> C                   0.99569100    4.61324200    1.67796300
| 43> C                   2.04170400   -3.11777200    0.04572500
| 44> C                   0.89406900   -3.83573300    0.42641900
| 45> C                   1.00955400   -5.07330000    1.05168400
| 46> C                   2.27305100   -5.60479100    1.32467400
| 47> C                   3.41524900   -4.89469700    0.96013300
| 48> C                   3.30410300   -3.65723600    0.32178800
| 49> C                   3.44990100   -0.86943700   -1.13991700
| 50> C                   4.08516100    0.13537000   -0.39937500
| 51> C                   5.35098800    0.59022600   -0.76886800
| 52> C                   5.98734200    0.04570300   -1.88381200
| 53> C                   5.35844300   -0.95471200   -2.62901300
| 54> C                   4.09493600   -1.41174600   -2.26112400
| 55> H                   1.74438700    0.77488800   -4.14727200
| 56> H                   3.60775500    2.40689200   -4.38332100
| 57> H                   4.08925700    4.03075300   -2.55053600
| 58> H                   2.74391700    3.98328200   -0.47098600
| 59> H                  -1.30645400    0.14043800   -4.09971100
| 60> H                  -1.47963400   -2.07398100   -5.26174100
| 61> H                  -0.14538200   -4.01087300   -4.42864900
| 62> H                   1.30440400   -3.75667100   -2.43967600
| 63> H                  -3.24324100    4.07500600   -2.07041300
| 64> H                  -4.81034500    3.86923300   -0.14545700
| 65> H                  -3.99785900    2.93551100    2.01957900
| 66> H                  -1.64311800    2.18950600    2.24656400
| 67> H                   3.85341800    3.28696200    3.95429600
| 68> H                   3.18028500    5.68270100    4.06516400
| 69> H                   1.34552500    6.52594500    2.60900500
| 70> H                   0.19513800    4.99291500    1.03600900
| 71> H                   0.10916300   -5.62372000    1.33584200
| 72> H                   2.36471300   -6.57232800    1.82367200
| 73> H                   4.40599100   -5.30467600    1.17078800
| 74> H                   4.20977500   -3.11155900    0.04303200
| 75> H                   5.83654300    1.37855800   -0.18827300
| 76> H                   6.97670900    0.40441200   -2.17779700
| 77> H                   5.85609100   -1.38007400   -3.50384500
| 78> H                   3.60629100   -2.19459500   -2.84949300
| 79> O                   0.13316500    0.63376700   -2.00107900
| 80> P                   0.59093900    2.08373300    0.45431600
| 81> P                   1.79852300   -1.42758600   -0.59831700
| 82> H                   2.68540700    1.73836900    2.39709800
| 83> H                  -0.88518100    3.35288700   -1.84504700
| 84> H                   3.57363700    0.56917800    0.46774400
| 85> H                  -0.09854200   -3.41398900    0.23217800
| 86> Cu                  0.56426300   -0.15140400    0.85571700
| 87> C                  -0.95375900   -1.64827400    2.90368500
| 88> C                  -1.25748900   -2.43960500    4.01523800
| 89> C                  -0.23772200   -2.78212500    4.89550800
| 90> C                   1.05707200   -2.33069600    4.64059100
| 91> C                   1.27572800   -1.53941400    3.51841400
| 92> H                  -2.27949900   -2.78910500    4.17195300
| 93> H                   1.88792500   -2.58370600    5.30037000
| 94> H                   2.27661600   -1.16453200    3.28178500
| 95> N                   0.29977700   -1.19524500    2.67002100
| 96> H                  -0.44942600   -3.40283300    5.76826400
| 97> C                  -1.93163300   -1.28156700    1.88784800
| 98> C                  -3.30782600   -1.37136700    1.80446200
| 99> H                  -4.06154100   -1.72406100    2.50034100
|100> N                  -1.49322600   -0.72511400    0.72215600
|101> N                  -2.49176800   -0.47304000   -0.06545300
|102> N                  -3.60770300   -0.85901500    0.58462300
|103> C                  -4.88222700   -0.69022200   -0.02160800
|104> C                  -6.00534500   -1.31703700    0.51966300
|105> C                  -5.00180300    0.11520200   -1.15820800
|106> C                  -7.24840500   -1.12609400   -0.07706500
|107> H                  -5.91859900   -1.95914200    1.39765800
|108> C                  -6.25114600    0.28862800   -1.74041900
|109> H                  -4.11935900    0.60574700   -1.57034300
|110> C                  -7.40026000   -0.32376900   -1.21578800
|111> H                  -8.12387100   -1.61866700    0.35381700
|112> H                  -6.33931000    0.92444000   -2.62558700
|113> C                  -8.73198100   -0.14022600   -1.86618700
|114> H                  -8.81512500   -0.74864900   -2.78044500
|115> H                  -9.55579200   -0.43607700   -1.20470600
|116> H                  -8.89461100    0.90203700   -2.17348600
|117> *
|118>
|119>                          ****END OF INPUT****

CARTESIAN COORDINATES (ANGSTROEM)
---------------------------------
  C      1.466887    2.367975   -1.123158
  C      1.197738    1.479727   -2.182097
  C      1.962323    1.486293   -3.347418
  C      3.004561    2.403873   -3.472330
  C      3.274633    3.310806   -2.448235
  C      2.510315    3.288107   -1.281917
  C      0.846111   -1.665251   -2.147693
  C      0.100033   -0.583420   -2.651839
  C     -0.735703   -0.724649   -3.755729
  C     -0.825487   -1.959689   -4.394597
  C     -0.081005   -3.042851   -3.927323
  C      0.741111   -2.896141   -2.811334
  C     -1.102045    2.729982    0.218632
  C     -1.564008    3.256318   -0.992944
  C     -2.892994    3.664931   -1.119897
  C     -3.769455    3.552943   -0.041380
  C     -3.314870    3.029152    1.171329
  C     -1.991959    2.614437    1.298556
  C      1.370679    3.263839    1.608550
  C      2.398356    2.794657    2.438993
  C      3.052045    3.661867    3.313341
  C      2.673998    5.003267    3.375359
  C      1.644259    5.476085    2.559897
  C      0.995691    4.613242    1.677963
  C      2.041704   -3.117772    0.045725
  C      0.894069   -3.835733    0.426419
  C      1.009554   -5.073300    1.051684
  C      2.273051   -5.604791    1.324674
  C      3.415249   -4.894697    0.960133
  C      3.304103   -3.657236    0.321788
  C      3.449901   -0.869437   -1.139917
  C      4.085161    0.135370   -0.399375
  C      5.350988    0.590226   -0.768868
  C      5.987342    0.045703   -1.883812
  C      5.358443   -0.954712   -2.629013
  C      4.094936   -1.411746   -2.261124
  H      1.744387    0.774888   -4.147272
  H      3.607755    2.406892   -4.383321
  H      4.089257    4.030753   -2.550536
  H      2.743917    3.983282   -0.470986
  H     -1.306454    0.140438   -4.099711
  H     -1.479634   -2.073981   -5.261741
  H     -0.145382   -4.010873   -4.428649
  H      1.304404   -3.756671   -2.439676
  H     -3.243241    4.075006   -2.070413
  H     -4.810345    3.869233   -0.145457
  H     -3.997859    2.935511    2.019579
  H     -1.643118    2.189506    2.246564
  H      3.853418    3.286962    3.954296
  H      3.180285    5.682701    4.065164
  H      1.345525    6.525945    2.609005
  H      0.195138    4.992915    1.036009
  H      0.109163   -5.623720    1.335842
  H      2.364713   -6.572328    1.823672
  H      4.405991   -5.304676    1.170788
  H      4.209775   -3.111559    0.043032
  H      5.836543    1.378558   -0.188273
  H      6.976709    0.404412   -2.177797
  H      5.856091   -1.380074   -3.503845
  H      3.606291   -2.194595   -2.849493
  O      0.133165    0.633767   -2.001079
  P      0.590939    2.083733    0.454316
  P      1.798523   -1.427586   -0.598317
  H      2.685407    1.738369    2.397098
  H     -0.885181    3.352887   -1.845047
  H      3.573637    0.569178    0.467744
  H     -0.098542   -3.413989    0.232178
  Cu     0.564263   -0.151404    0.855717
  C     -0.953759   -1.648274    2.903685
  C     -1.257489   -2.439605    4.015238
  C     -0.237722   -2.782125    4.895508
  C      1.057072   -2.330696    4.640591
  C      1.275728   -1.539414    3.518414
  H     -2.279499   -2.789105    4.171953
  H      1.887925   -2.583706    5.300370
  H      2.276616   -1.164532    3.281785
  N      0.299777   -1.195245    2.670021
  H     -0.449426   -3.402833    5.768264
  C     -1.931633   -1.281567    1.887848
  C     -3.307826   -1.371367    1.804462
  H     -4.061541   -1.724061    2.500341
  N     -1.493226   -0.725114    0.722156
  N     -2.491768   -0.473040   -0.065453
  N     -3.607703   -0.859015    0.584623
  C     -4.882227   -0.690222   -0.021608
  C     -6.005345   -1.317037    0.519663
  C     -5.001803    0.115202   -1.158208
  C     -7.248405   -1.126094   -0.077065
  H     -5.918599   -1.959142    1.397658
  C     -6.251146    0.288628   -1.740419
  H     -4.119359    0.605747   -1.570343
  C     -7.400260   -0.323769   -1.215788
  H     -8.123871   -1.618667    0.353817
  H     -6.339310    0.924440   -2.625587
  C     -8.731981   -0.140226   -1.866187
  H     -8.815125   -0.748649   -2.780445
  H     -9.555792   -0.436077   -1.204706
  H     -8.894611    0.902037   -2.173486

 Total Charge           Charge          ....    1
 Multiplicity           Mult            ....    1
 Number of Electrons    NEL             ....  434
 Basis Dimension        Dim             .... 1037

ORBITAL ENERGIES
----------------

  NO   OCC          E(Eh)            E(eV)
   0   2.0000    -325.502310     -8857.3682
   1   2.0000     -78.362037     -2132.3394
   2   2.0000     -78.361582     -2132.3271
   3   2.0000     -39.730680     -1081.1268
   4   2.0000     -34.778930      -946.3828
   5   2.0000     -34.778740      -946.3776
   6   2.0000     -34.778552      -946.3725
   7   2.0000     -19.859874      -540.4147
   8   2.0000     -15.048545      -409.4917
   9   2.0000     -15.012729      -408.5171
  10   2.0000     -14.987000      -407.8170
  11   2.0000     -14.961199      -407.1149
  12   2.0000     -10.785657      -293.4926
  13   2.0000     -10.783525      -293.4346
  14   2.0000     -10.778349      -293.2938
  15   2.0000     -10.774210      -293.1812
  16   2.0000     -10.767689      -293.0037
  17   2.0000     -10.761242      -292.8283
  18   2.0000     -10.757020      -292.7134
  19   2.0000     -10.738346      -292.2052
  20   2.0000     -10.728272      -291.9311
  21   2.0000     -10.725367      -291.8521
  22   2.0000     -10.722825      -291.7829
  23   2.0000     -10.722113      -291.7635
  24   2.0000     -10.721847      -291.7563
  25   2.0000     -10.721290      -291.7411
  26   2.0000     -10.720237      -291.7125
  27   2.0000     -10.719974      -291.7053
  28   2.0000     -10.719339      -291.6881
  29   2.0000     -10.719320      -291.6875
  30   2.0000     -10.719254      -291.6857
  31   2.0000     -10.719047      -291.6801
  32   2.0000     -10.718975      -291.6781
  33   2.0000     -10.718040      -291.6527
  34   2.0000     -10.717568      -291.6398
  35   2.0000     -10.717562      -291.6397
  36   2.0000     -10.717147      -291.6284
  37   2.0000     -10.716587      -291.6131
  38   2.0000     -10.716352      -291.6068
  39   2.0000     -10.716229      -291.6034
  40   2.0000     -10.715562      -291.5853
  41   2.0000     -10.715140      -291.5738
  42   2.0000     -10.714627      -291.5598
  43   2.0000     -10.713881      -291.5395
  44   2.0000     -10.713622      -291.5325
  45   2.0000     -10.713588      -291.5315
  46   2.0000     -10.712594      -291.5045
  47   2.0000     -10.712449      -291.5006
  48   2.0000     -10.712379      -291.4986
  49   2.0000     -10.711891      -291.4854
  50   2.0000     -10.711780      -291.4823
  51   2.0000     -10.711189      -291.4663
  52   2.0000     -10.711168      -291.4657
  53   2.0000     -10.710796      -291.4556
  54   2.0000     -10.710731      -291.4538
  55   2.0000     -10.710534      -291.4484
  56   2.0000     -10.710394      -291.4446
  57   2.0000     -10.710380      -291.4443
  58   2.0000     -10.709592      -291.4228
  59   2.0000     -10.709134      -291.4104
  60   2.0000     -10.707227      -291.3584
  61   2.0000     -10.693489      -290.9846
  62   2.0000      -7.050842      -191.8632
  63   2.0000      -7.050173      -191.8449
  64   2.0000      -5.105690      -138.9329
  65   2.0000      -5.105504      -138.9278
  66   2.0000      -5.105019      -138.9146
  67   2.0000      -5.104893      -138.9112
  68   2.0000      -5.103991      -138.8866
  69   2.0000      -5.103353      -138.8693
  70   2.0000      -4.655252      -126.6759
  71   2.0000      -3.076130       -83.7057
  72   2.0000      -3.073860       -83.6440
  73   2.0000      -3.071427       -83.5778
  74   2.0000      -1.356872       -36.9224
  75   2.0000      -1.317925       -35.8626
  76   2.0000      -1.189269       -32.3616
  77   2.0000      -1.159685       -31.5566
  78   2.0000      -1.083429       -29.4816
  79   2.0000      -1.074939       -29.2506
  80   2.0000      -1.071708       -29.1627
  81   2.0000      -1.070826       -29.1387
  82   2.0000      -1.065853       -29.0033
  83   2.0000      -1.064936       -28.9784
  84   2.0000      -1.062034       -28.8994
  85   2.0000      -1.045903       -28.4605
  86   2.0000      -1.018104       -27.7040
  87   2.0000      -0.984209       -26.7817
  88   2.0000      -0.980841       -26.6900
  89   2.0000      -0.980105       -26.6700
  90   2.0000      -0.968162       -26.3450
  91   2.0000      -0.963927       -26.2298
  92   2.0000      -0.948370       -25.8065
  93   2.0000      -0.947304       -25.7775
  94   2.0000      -0.945461       -25.7273
  95   2.0000      -0.943027       -25.6611
  96   2.0000      -0.942500       -25.6467
  97   2.0000      -0.941325       -25.6147
  98   2.0000      -0.939755       -25.5720
  99   2.0000      -0.938410       -25.5354
 100   2.0000      -0.937753       -25.5176
 101   2.0000      -0.920748       -25.0548
 102   2.0000      -0.894214       -24.3328
 103   2.0000      -0.856672       -23.3112
 104   2.0000      -0.843688       -22.9579
 105   2.0000      -0.840221       -22.8636
 106   2.0000      -0.832967       -22.6662
 107   2.0000      -0.815158       -22.1816
 108   2.0000      -0.806936       -21.9578
 109   2.0000      -0.803015       -21.8511
 110   2.0000      -0.791821       -21.5466
 111   2.0000      -0.785755       -21.3815
 112   2.0000      -0.780984       -21.2517
 113   2.0000      -0.779713       -21.2171
 114   2.0000      -0.778402       -21.1814
 115   2.0000      -0.773676       -21.0528
 116   2.0000      -0.772822       -21.0296
 117   2.0000      -0.768437       -20.9102
 118   2.0000      -0.767995       -20.8982
 119   2.0000      -0.752805       -20.4849
 120   2.0000      -0.751528       -20.4501
 121   2.0000      -0.732153       -19.9229
 122   2.0000      -0.731339       -19.9007
 123   2.0000      -0.727544       -19.7975
 124   2.0000      -0.705027       -19.1848
 125   2.0000      -0.692698       -18.8493
 126   2.0000      -0.679521       -18.4907
 127   2.0000      -0.677400       -18.4330
 128   2.0000      -0.670457       -18.2441
 129   2.0000      -0.666823       -18.1452
 130   2.0000      -0.661667       -18.0049
 131   2.0000      -0.659754       -17.9528
 132   2.0000      -0.652838       -17.7646
 133   2.0000      -0.648652       -17.6507
 134   2.0000      -0.638220       -17.3669
 135   2.0000      -0.637748       -17.3540
 136   2.0000      -0.633572       -17.2404
 137   2.0000      -0.627698       -17.0805
 138   2.0000      -0.623138       -16.9565
 139   2.0000      -0.618631       -16.8338
 140   2.0000      -0.613193       -16.6858
 141   2.0000      -0.612091       -16.6558
 142   2.0000      -0.609961       -16.5979
 143   2.0000      -0.608952       -16.5704
 144   2.0000      -0.600254       -16.3337
 145   2.0000      -0.597734       -16.2652
 146   2.0000      -0.595132       -16.1944
 147   2.0000      -0.593836       -16.1591
 148   2.0000      -0.591206       -16.0875
 149   2.0000      -0.589376       -16.0377
 150   2.0000      -0.586913       -15.9707
 151   2.0000      -0.580285       -15.7904
 152   2.0000      -0.578254       -15.7351
 153   2.0000      -0.577377       -15.7112
 154   2.0000      -0.575822       -15.6689
 155   2.0000      -0.572013       -15.5653
 156   2.0000      -0.570467       -15.5232
 157   2.0000      -0.569987       -15.5101
 158   2.0000      -0.566885       -15.4257
 159   2.0000      -0.566238       -15.4081
 160   2.0000      -0.565535       -15.3890
 161   2.0000      -0.559900       -15.2357
 162   2.0000      -0.557201       -15.1622
 163   2.0000      -0.555097       -15.1050
 164   2.0000      -0.552353       -15.0303
 165   2.0000      -0.542853       -14.7718
 166   2.0000      -0.535490       -14.5714
 167   2.0000      -0.526986       -14.3400
 168   2.0000      -0.522619       -14.2212
 169   2.0000      -0.521620       -14.1940
 170   2.0000      -0.519941       -14.1483
 171   2.0000      -0.517331       -14.0773
 172   2.0000      -0.515592       -14.0300
 173   2.0000      -0.514681       -14.0052
 174   2.0000      -0.513657       -13.9773
 175   2.0000      -0.509274       -13.8580
 176   2.0000      -0.504929       -13.7398
 177   2.0000      -0.501470       -13.6457
 178   2.0000      -0.500564       -13.6210
 179   2.0000      -0.493992       -13.4422
 180   2.0000      -0.486622       -13.2417
 181   2.0000      -0.485621       -13.2144
 182   2.0000      -0.483457       -13.1555
 183   2.0000      -0.481790       -13.1102
 184   2.0000      -0.480783       -13.0828
 185   2.0000      -0.478761       -13.0277
 186   2.0000      -0.476817       -12.9749
 187   2.0000      -0.468063       -12.7366
 188   2.0000      -0.467182       -12.7127
 189   2.0000      -0.465706       -12.6725
 190   2.0000      -0.461935       -12.5699
 191   2.0000      -0.460584       -12.5331
 192   2.0000      -0.459143       -12.4939
 193   2.0000      -0.454576       -12.3697
 194   2.0000      -0.452256       -12.3065
 195   2.0000      -0.429665       -11.6918
 196   2.0000      -0.421493       -11.4694
 197   2.0000      -0.415799       -11.3145
 198   2.0000      -0.410728       -11.1765
 199   2.0000      -0.387899       -10.5553
 200   2.0000      -0.380844       -10.3633
 201   2.0000      -0.379271       -10.3205
 202   2.0000      -0.372387       -10.1332
 203   2.0000      -0.371327       -10.1043
 204   2.0000      -0.369434       -10.0528
 205   2.0000      -0.367213        -9.9924
 206   2.0000      -0.365817        -9.9544
 207   2.0000      -0.364045        -9.9062
 208   2.0000      -0.361345        -9.8327
 209   2.0000      -0.359158        -9.7732
 210   2.0000      -0.357751        -9.7349
 211   2.0000      -0.355485        -9.6732
 212   2.0000      -0.355264        -9.6672
 213   2.0000      -0.341758        -9.2997
 214   2.0000      -0.335495        -9.1293
 215   2.0000      -0.333227        -9.0676
 216   2.0000      -0.308474        -8.3940
 217   0.0000       0.027394         0.7454
 218   0.0000       0.036191         0.9848
 219   0.0000       0.046863         1.2752
 220   0.0000       0.050667         1.3787
 221   0.0000       0.055125         1.5000

MULLIKEN ATOMIC CHARGES
-----------------------
   0 C :   -0.248967
   1 C :    0.233232
   2 C :   -0.065804
   3 C :   -0.013699
   4 C :   -0.029970
   5 C :   -0.039584
   6 C :   -0.209990
   7 C :    0.184346
   8 C :   -0.033981
   9 C :   -0.019552
  10 C :   -0.025069
  11 C :   -0.037248
  12 C :   -0.218467
  13 C :   -0.027483
  14 C :   -0.033669
  15 C :   -0.031595
  16 C :   -0.044065
  17 C :   -0.018693
  18 C :   -0.255368
  19 C :   -0.019445
  20 C :   -0.035312
  21 C :   -0.027322
  22 C :   -0.035271
  23 C :   -0.002779
  24 C :   -0.235321
  25 C :   -0.019335
  26 C :   -0.040564
  27 C :   -0.031365
  28 C :   -0.033719
  29 C :   -0.032691
  30 C :   -0.232855
  31 C :    0.008791
  32 C :   -0.036078
  33 C :   -0.029084
  34 C :   -0.038934
  35 C :   -0.006641
  36 H :    0.052557
  37 H :    0.057011
  38 H :    0.047813
  39 H :    0.056972
  40 H :    0.045850
  41 H :    0.059892
  42 H :    0.052142
  43 H :    0.062481
  44 H :    0.048750
  45 H :    0.051651
  46 H :    0.049513
  47 H :    0.052855
  48 H :    0.049948
  49 H :    0.055736
  50 H :    0.052296
  51 H :    0.052902
  52 H :    0.049690
  53 H :    0.052666
  54 H :    0.050378
  55 H :    0.054738
  56 H :    0.050059
  57 H :    0.055530
  58 H :    0.051199
  59 H :    0.046287
  60 O :   -0.403645
  61 P :    0.594584
  62 P :    0.549039
  63 H :    0.058602
  64 H :    0.053429
  65 H :    0.032997
  66 H :    0.050822
  67 Cu:    0.312055
  68 C :    0.129142
  69 C :   -0.068835
  70 C :    0.056749
  71 C :   -0.076422
  72 C :    0.121329
  73 H :    0.061537
  74 H :    0.069891
  75 H :    0.078927
  76 N :   -0.300409
  77 H :    0.073981
  78 C :    0.097607
  79 C :    0.102134
  80 H :    0.111781
  81 N :   -0.250606
  82 N :    0.012410
  83 N :   -0.215287
  84 C :    0.181523
  85 C :   -0.069657
  86 C :   -0.039543
  87 C :   -0.049620
  88 H :    0.055608
  89 C :   -0.041678
  90 H :    0.053482
  91 C :   -0.107557
  92 H :    0.044370
  93 H :    0.043136
  94 C :    0.036952
  95 H :    0.064266
  96 H :    0.047353
  97 H :    0.054187
Sum of atomic charges:    1.0000000

LOEWDIN ATOMIC CHARGES
----------------------
   0 C :   -0.210653
   1 C :    0.061070
   2 C :   -0.063638
   3 C :   -0.005915
   4 C :   -0.051863
   5 C :   -0.016222
   6 C :   -0.198820
   7 C :    0.056730
   8 C :   -0.042851
   9 C :   -0.009935
  10 C :   -0.039543
  11 C :   -0.017194
  12 C :   -0.181271
  13 C :   -0.034036
  14 C :   -0.036077
  15 C :   -0.026817
  16 C :   -0.037507
  17 C :   -0.032311
  18 C :   -0.194371
  19 C :   -0.030427
  20 C :   -0.035930
  21 C :   -0.019560
  22 C :   -0.034484
  23 C :   -0.024916
  24 C :   -0.186512
  25 C :   -0.032761
  26 C :   -0.034832
  27 C :   -0.027553
  28 C :   -0.034362
  29 C :   -0.037055
  30 C :   -0.194661
  31 C :   -0.024030
  32 C :   -0.036362
  33 C :   -0.019031
  34 C :   -0.036721
  35 C :   -0.023283
  36 H :    0.049379
  37 H :    0.047879
  38 H :    0.043902
  39 H :    0.043902
  40 H :    0.051353
  41 H :    0.048860
  42 H :    0.046220
  43 H :    0.044618
  44 H :    0.043508
  45 H :    0.043608
  46 H :    0.043480
  47 H :    0.040879
  48 H :    0.044465
  49 H :    0.045500
  50 H :    0.044849
  51 H :    0.042288
  52 H :    0.043949
  53 H :    0.044272
  54 H :    0.044177
  55 H :    0.041119
  56 H :    0.044089
  57 H :    0.045393
  58 H :    0.044424
  59 H :    0.041826
  60 O :   -0.108569
  61 P :    0.790172
  62 P :    0.779940
  63 H :    0.041370
  64 H :    0.040525
  65 H :    0.037759
  66 H :    0.040261
  67 Cu:   -0.249178
  68 C :    0.037146
  69 C :   -0.033489
  70 C :    0.034650
  71 C :   -0.046878
  72 C :    0.061611
  73 H :    0.055290
  74 H :    0.054649
  75 H :    0.045630
  76 N :   -0.031069
  77 H :    0.057326
  78 C :   -0.058971
  79 C :    0.046854
  80 H :    0.067597
  81 N :   -0.008457
  82 N :   -0.048455
  83 N :    0.103821
  84 C :    0.004393
  85 C :   -0.031956
  86 C :   -0.026471
  87 C :   -0.028020
  88 H :    0.051498
  89 C :   -0.024847
  90 H :    0.045144
  91 C :   -0.023789
  92 H :    0.045123
  93 H :    0.045153
  94 C :   -0.050469
  95 H :    0.045723
  96 H :    0.037580
  97 H :    0.041169

  Mayer bond orders larger than 0.100000
B(  0-C ,  1-C ) :   1.3827 B(  0-C ,  5-C ) :   1.4219 B(  0-C , 61-P ) :   0.9533
B(  1-C ,  2-C ) :   1.3961 B(  1-C , 60-O ) :   1.0090 B(  2-C ,  3-C ) :   1.3682
B(  2-C , 36-H ) :   0.9963 B(  3-C ,  4-C ) :   1.3896 B(  3-C , 37-H ) :   0.9930
B(  4-C ,  5-C ) :   1.3975 B(  4-C , 38-H ) :   0.9995 B(  5-C , 39-H ) :   0.9888
B(  6-C ,  7-C ) :   1.3859 B(  6-C , 11-C ) :   1.4041 B(  6-C , 62-P ) :   0.9590
B(  7-C ,  8-C ) :   1.4431 B(  7-C , 60-O ) :   0.9513 B(  8-C ,  9-C ) :   1.3606
B(  8-C , 40-H ) :   1.0012 B(  9-C , 10-C ) :   1.3863 B(  9-C , 41-H ) :   0.9927
B( 10-C , 11-C ) :   1.4121 B( 10-C , 42-H ) :   0.9987 B( 11-C , 43-H ) :   0.9819
B( 12-C , 13-C ) :   1.4178 B( 12-C , 17-C ) :   1.3679 B( 12-C , 61-P ) :   0.9661
B( 13-C , 14-C ) :   1.4006 B( 13-C , 64-H ) :   0.9880 B( 14-C , 15-C ) :   1.4029
B( 14-C , 44-H ) :   0.9951 B( 15-C , 16-C ) :   1.3789 B( 15-C , 45-H ) :   0.9970
B( 16-C , 17-C ) :   1.4336 B( 16-C , 46-H ) :   0.9983 B( 17-C , 47-H ) :   0.9890
B( 18-C , 19-C ) :   1.3854 B( 18-C , 23-C ) :   1.3741 B( 18-C , 61-P ) :   0.9769
B( 19-C , 20-C ) :   1.4111 B( 19-C , 63-H ) :   0.9874 B( 20-C , 21-C ) :   1.3951
B( 20-C , 48-H ) :   0.9988 B( 21-C , 22-C ) :   1.3878 B( 21-C , 49-H ) :   0.9958
B( 22-C , 23-C ) :   1.4190 B( 22-C , 50-H ) :   0.9974 B( 23-C , 51-H ) :   0.9938
B( 24-C , 25-C ) :   1.3578 B( 24-C , 29-C ) :   1.4190 B( 24-C , 62-P ) :   0.9630
B( 25-C , 26-C ) :   1.4434 B( 25-C , 66-H ) :   0.9883 B( 26-C , 27-C ) :   1.3746
B( 26-C , 52-H ) :   0.9973 B( 27-C , 28-C ) :   1.4100 B( 27-C , 53-H ) :   0.9965
B( 28-C , 29-C ) :   1.3966 B( 28-C , 54-H ) :   0.9950 B( 29-C , 55-H ) :   0.9908
B( 30-C , 31-C ) :   1.3949 B( 30-C , 35-C ) :   1.3595 B( 30-C , 62-P ) :   0.9882
B( 31-C , 32-C ) :   1.4005 B( 31-C , 65-H ) :   0.9904 B( 32-C , 33-C ) :   1.4008
B( 32-C , 56-H ) :   0.9989 B( 33-C , 34-C ) :   1.3789 B( 33-C , 57-H ) :   0.9962
B( 34-C , 35-C ) :   1.4277 B( 34-C , 58-H ) :   0.9977 B( 35-C , 59-H ) :   0.9955
B( 61-P , 67-Cu) :   0.6136 B( 62-P , 67-Cu) :   0.5668 B( 67-Cu, 76-N ) :   0.3098
B( 67-Cu, 81-N ) :   0.2600 B( 68-C , 69-C ) :   1.4160 B( 68-C , 76-N ) :   1.4131
B( 68-C , 78-C ) :   0.9988 B( 69-C , 70-C ) :   1.4116 B( 69-C , 73-H ) :   0.9816
B( 70-C , 71-C ) :   1.3970 B( 70-C , 77-H ) :   0.9840 B( 71-C , 72-C ) :   1.4205
B( 71-C , 74-H ) :   0.9853 B( 72-C , 75-H ) :   0.9732 B( 72-C , 76-N ) :   1.4094
B( 78-C , 79-C ) :   1.4709 B( 78-C , 81-N ) :   1.2965 B( 79-C , 80-H ) :   0.9814
B( 79-C , 83-N ) :   1.2232 B( 81-N , 82-N ) :   1.4496 B( 82-N , 83-N ) :   1.1502
B( 83-N , 84-C ) :   0.8831 B( 84-C , 85-C ) :   1.3937 B( 84-C , 86-C ) :   1.3876
B( 85-C , 87-C ) :   1.4009 B( 85-C , 88-H ) :   0.9992 B( 86-C , 89-C ) :   1.4091
B( 86-C , 90-H ) :   0.9921 B( 87-C , 91-C ) :   1.4070 B( 87-C , 92-H ) :   0.9950
B( 89-C , 91-C ) :   1.3804 B( 89-C , 93-H ) :   0.9988 B( 91-C , 94-C ) :   1.0329
B( 94-C , 95-H ) :   0.9616 B( 94-C , 96-H ) :   0.9727 B( 94-C , 97-H ) :   0.9684

MP2 TOTAL ENERGY:    -4539.032615339 Eh

-----------------------------------------------------------------------------
         ABSORPTION SPECTRUM VIA TRANSITION ELECTRIC DIPOLE MOMENTS
-----------------------------------------------------------------------------
State   Energy    Wavelength  fosc         T2        TX        TY        TZ
        (cm-1)      (nm)                 (au**2)    (au)      (au)      (au)
-----------------------------------------------------------------------------
   1   39551.9    252.8   0.662525334   5.51456   1.94237  -0.37081   1.26658
   2   38835.7    257.5   0.313282533   2.65571   1.62838  -0.05890  -0.02465
   3   39540.7    252.9   0.088052236   0.73311   0.23916  -0.63537  -0.52175
   4   38261.1    261.4   0.111174502   0.95658  -0.26859   0.56322   0.75314
   5   35411.5    282.4   0.058964425   0.54818   0.13917   0.33022  -0.64789
   6   40459.0    247.2   0.112344256   0.91414  -0.53170   0.67851   0.41359
   7   41539.6    240.7   0.004283320   0.03395  -0.03314   0.00963  -0.18098
   8   41273.7    242.3   0.127953701   1.02060   0.40344   0.79651  -0.47267
   9   41286.0    242.2   0.076300477   0.60841   0.44345  -0.36055   0.53082
  10   41794.3    239.3   0.040044760   0.31543  -0.08127   0.51011  -0.22049
  11   42261.4    236.6   0.003326903   0.02592  -0.05998   0.14939  -0.00078
  12   42362.5    236.1   0.081110300   0.63033   0.12856  -0.36770   0.69181
  13   42739.7    234.0   0.306979171   2.36458  -1.44204  -0.19702  -0.49625
  14   40713.4    245.6   0.019023427   0.15383  -0.21641   0.14935   0.29101
  15   40426.8    247.4   0.059980927   0.48845   0.55942   0.05230   0.41565
  16   42340.5    236.2   0.114016257   0.88652   0.29573   0.44786  -0.77361
  17   41005.1    243.9   0.084838039   0.68113   0.04352  -0.80807  -0.16202
  18   43995.4    227.3   0.020451718   0.15304  -0.29929  -0.25159   0.01297
  19   47601.6    210.1   0.033510383   0.23176  -0.19527  -0.43996  -0.00798
  20   46067.4    217.1   0.017206709   0.12296   0.29177   0.18724  -0.05269
  21   45905.3    217.8   0.058093118   0.41662   0.27010   0.58049  -0.08181
  22   47320.8    211.3   0.044055222   0.30649  -0.53905   0.03354   0.12163
  23   48790.4    205.0   0.027911877   0.18833   0.11394  -0.15035   0.39083
  24   40846.4    244.8   0.040993994   0.33040  -0.10931   0.18533  -0.53301
  25   46767.8    213.8   0.302011449   2.12594  -1.00343  -0.78126  -0.71323
  26   43311.7    230.9   0.093057603   0.70733  -0.02586  -0.80236   0.25077
  27   42419.0    235.7   0.065429126   0.50779  -0.15035   0.69653   0.00549
  28   42048.9    237.8   0.275789346   2.15923  -0.74248   0.82291  -0.96476
  29   47214.1    211.8   0.180866349   1.26114  -0.19759   0.97976  -0.51202
  30   47946.5    208.6   0.070018913   0.48077   0.62748   0.18350  -0.23100
  31   49119.4    203.6   0.613498548   4.11184   1.80776  -0.86665  -0.30455
  32   50673.9    197.3   0.805390795   5.23236   2.14241  -0.05162   0.79985
  33   50458.5    198.2   0.079263550   0.51715   0.42811   0.52561  -0.24002
  34   43825.8    228.2   0.316874486   2.38031   0.12357  -1.00041   1.16800
  35   48565.3    205.9   0.448051907   3.03723  -0.26704   1.34233  -1.07892
  36   49578.3    201.7   0.925613642   6.14630  -1.96100  -1.45388  -0.43243
  37   47855.2    209.0   0.131195746   0.90254  -0.53477  -0.75023  -0.23177
  38   47299.0    211.4   0.058493613   0.40713   0.40907  -0.20123  -0.44643
  39   47782.1    209.3   0.298097606   2.05385   0.33898  -1.38664  -0.12715
  40   49356.9    202.6   0.277840476   1.85320  -0.87971   1.02751   0.15346

FINAL SINGLE POINT ENERGY     -4536.453299935383

DIPOLE MOMENT
-------------
                                X             Y             Z
Electronic contribution:     14.14322      -2.85839      11.17151
Nuclear contribution   :    -15.34854       1.07561      -9.10706
                        -----------------------------------------
Total Dipole Moment    :     -1.20532      -1.78278       2.06444
                        -----------------------------------------
Magnitude (a.u.)       :      2.98212
Magnitude (Debye)      :      7.57994

Rotational constants in cm-1:     0.001847     0.001372     0.001226
Rotational constants in MHz :    55.376394    41.117827    36.746550

                             ****ORCA TERMINATED NORMALLY****
TOTAL RUN TIME: 0 days 14 hours 26 minutes 50 seconds 946 msec
