                         Program Version 5.0.2 -  RELEASE  -
|  1> %maxcore 16000
|  2> %pal
|  3>  nprocs= 8
|  4> end
|  5> ! RI-B2PLYP  def2-SVP def2/J def2-SVP/C RIJCOSX CPCM TIGHTSCF
|  6>
|  7> %TDDFT
|  8>     DCORR      4
|  9>     NROOTS    40
| 10>     TDA       FALSE
| 11> END
| 12>
| 13> %CPCM
| 14>     SMD		TRUE
| 15>     SMDsolvent	"CH2Cl2"
| 16> END
| 17>
| 18> * xyz 1 1
| 19> C                   1.46688700    2.36797500   -1.12315800
| 20> C                   1.19773800    1.47972700   -2.18209700
| 21> C                   1.96232300    1.48629300   -3.34741800
| 22> C                   3.00456100    2.40387300   -3.47233000
| 23> C                   3.27463300    3.31080600   -2.44823500
| 24> C                   2.51031500    3.28810700   -1.28191700
| 25> C                   0.84611100   -1.66525100   -2.14769300
| 26> C                   0.10003300   -0.58342000   -2.65183900
| 27> C                  -0.73570300   -0.72464900   -3.75572900
| 28> C                  -0.82548700   -1.95968900   -4.39459700
| 29> C                  -0.08100500   -3.04285100   -3.92732300
| 30> C                   0.74111100   -2.89614100   -2.81133400
| 31> C                  -1.10204500    2.72998200    0.21863200
| 32> C                  -1.56400800    3.25631800   -0.99294400
| 33> C                  -2.89299400    3.66493100   -1.11989700
| 34> C                  -3.76945500    3.55294300   -0.04138000
| 35> C                  -3.31487000    3.02915200    1.17132900
| 36> C                  -1.99195900    2.61443700    1.29855600
| 37> C                   1.37067900    3.26383900    1.60855000
| 38> C                   2.39835600    2.79465700    2.43899300
| 39> C                   3.05204500    3.66186700    3.31334100
| 40> C                   2.67399800    5.00326700    3.37535900
| 41> C                   1.64425900    5.47608500    2.55989700
| 42> C                   0.99569100    4.61324200    1.67796300
| 43> C                   2.04170400   -3.11777200    0.04572500
| 44> C                   0.89406900   -3.83573300    0.42641900
| 45> C                   1.00955400   -5.07330000    1.05168400
| 46> C                   2.27305100   -5.60479100    1.32467400
| 47> C                   3.41524900   -4.89469700    0.96013300
| 48> C                   3.30410300   -3.65723600    0.32178800
| 49> C                   3.44990100   -0.86943700   -1.13991700
| 50> C                   4.08516100    0.13537000   -0.39937500
| 51> C                   5.35098800    0.59022600   -0.76886800
| 52> C                   5.98734200    0.04570300   -1.88381200
| 53> C                   5.35844300   -0.95471200   -2.62901300
| 54> C                   4.09493600   -1.41174600   -2.26112400
| 55> H                   1.74438700    0.77488800   -4.14727200
| 56> H                   3.60775500    2.40689200   -4.38332100
| 57> H                   4.08925700    4.03075300   -2.55053600
| 58> H                   2.74391700    3.98328200   -0.47098600
| 59> H                  -1.30645400    0.14043800   -4.09971100
| 60> H                  -1.47963400   -2.07398100   -5.26174100
| 61> H                  -0.14538200   -4.01087300   -4.42864900
| 62> H                   1.30440400   -3.75667100   -2.43967600
| 63> H                  -3.24324100    4.07500600   -2.07041300
| 64> H                  -4.81034500    3.86923300   -0.14545700
| 65> H                  -3.99785900    2.93551100    2.01957900
| 66> H                  -1.64311800    2.18950600    2.24656400
| 67> H                   3.85341800    3.28696200    3.95429600
| 68> H                   3.18028500    5.68270100    4.06516400
| 69> H                   1.34552500    6.52594500    2.60900500
| 70> H                   0.19513800    4.99291500    1.03600900
| 71> H                   0.10916300   -5.62372000    1.33584200
| 72> H                   2.36471300   -6.57232800    1.82367200
| 73> H                   4.40599100   -5.30467600    1.17078800
| 74> H                   4.20977500   -3.11155900    0.04303200
| 75> H                   5.83654300    1.37855800   -0.18827300
| 76> H                   6.97670900    0.40441200   -2.17779700
| 77> H                   5.85609100   -1.38007400   -3.50384500
| 78> H                   3.60629100   -2.19459500   -2.84949300
| 79> O                   0.13316500    0.63376700   -2.00107900
| 80> P                   0.59093900    2.08373300    0.45431600
| 81> P                   1.79852300   -1.42758600   -0.59831700
| 82> H                   2.68540700    1.73836900    2.39709800
| 83> H                  -0.88518100    3.35288700   -1.84504700
| 84> H                   3.57363700    0.56917800    0.46774400
| 85> H                  -0.09854200   -3.41398900    0.23217800
| 86> Cu                  0.56426300   -0.15140400    0.85571700
| 87> C                  -0.95375900   -1.64827400    2.90368500
| 88> C                  -1.25748900   -2.43960500    4.01523800
| 89> C                  -0.23772200   -2.78212500    4.89550800
| 90> C                   1.05707200   -2.33069600    4.64059100
| 91> C                   1.27572800   -1.53941400    3.51841400
| 92> H                  -2.27949900   -2.78910500    4.17195300
| 93> H                   1.88792500   -2.58370600    5.30037000
| 94> H                   2.27661600   -1.16453200    3.28178500
| 95> N                   0.29977700   -1.19524500    2.67002100
| 96> H                  -0.44942600   -3.40283300    5.76826400
| 97> C                  -1.93163300   -1.28156700    1.88784800
| 98> C                  -3.30782600   -1.37136700    1.80446200
| 99> H                  -4.06154100   -1.72406100    2.50034100
|100> N                  -1.49322600   -0.72511400    0.72215600
|101> N                  -2.49176800   -0.47304000   -0.06545300
|102> N                  -3.60770300   -0.85901500    0.58462300
|103> C                  -4.88222700   -0.69022200   -0.02160800
|104> C                  -6.00534500   -1.31703700    0.51966300
|105> C                  -5.00180300    0.11520200   -1.15820800
|106> C                  -7.24840500   -1.12609400   -0.07706500
|107> H                  -5.91859900   -1.95914200    1.39765800
|108> C                  -6.25114600    0.28862800   -1.74041900
|109> H                  -4.11935900    0.60574700   -1.57034300
|110> C                  -7.40026000   -0.32376900   -1.21578800
|111> H                  -8.12387100   -1.61866700    0.35381700
|112> H                  -6.33931000    0.92444000   -2.62558700
|113> C                  -8.73198100   -0.14022600   -1.86618700
|114> H                  -8.81512500   -0.74864900   -2.78044500
|115> H                  -9.55579200   -0.43607700   -1.20470600
|116> H                  -8.89461100    0.90203700   -2.17348600
|117> *
|118>
|119>                          ****END OF INPUT****

CARTESIAN COORDINATES (ANGSTROEM)
---------------------------------
  C      1.466887    2.367975   -1.123158
  C      1.197738    1.479727   -2.182097
  C      1.962323    1.486293   -3.347418
  C      3.004561    2.403873   -3.472330
  C      3.274633    3.310806   -2.448235
  C      2.510315    3.288107   -1.281917
  C      0.846111   -1.665251   -2.147693
  C      0.100033   -0.583420   -2.651839
  C     -0.735703   -0.724649   -3.755729
  C     -0.825487   -1.959689   -4.394597
  C     -0.081005   -3.042851   -3.927323
  C      0.741111   -2.896141   -2.811334
  C     -1.102045    2.729982    0.218632
  C     -1.564008    3.256318   -0.992944
  C     -2.892994    3.664931   -1.119897
  C     -3.769455    3.552943   -0.041380
  C     -3.314870    3.029152    1.171329
  C     -1.991959    2.614437    1.298556
  C      1.370679    3.263839    1.608550
  C      2.398356    2.794657    2.438993
  C      3.052045    3.661867    3.313341
  C      2.673998    5.003267    3.375359
  C      1.644259    5.476085    2.559897
  C      0.995691    4.613242    1.677963
  C      2.041704   -3.117772    0.045725
  C      0.894069   -3.835733    0.426419
  C      1.009554   -5.073300    1.051684
  C      2.273051   -5.604791    1.324674
  C      3.415249   -4.894697    0.960133
  C      3.304103   -3.657236    0.321788
  C      3.449901   -0.869437   -1.139917
  C      4.085161    0.135370   -0.399375
  C      5.350988    0.590226   -0.768868
  C      5.987342    0.045703   -1.883812
  C      5.358443   -0.954712   -2.629013
  C      4.094936   -1.411746   -2.261124
  H      1.744387    0.774888   -4.147272
  H      3.607755    2.406892   -4.383321
  H      4.089257    4.030753   -2.550536
  H      2.743917    3.983282   -0.470986
  H     -1.306454    0.140438   -4.099711
  H     -1.479634   -2.073981   -5.261741
  H     -0.145382   -4.010873   -4.428649
  H      1.304404   -3.756671   -2.439676
  H     -3.243241    4.075006   -2.070413
  H     -4.810345    3.869233   -0.145457
  H     -3.997859    2.935511    2.019579
  H     -1.643118    2.189506    2.246564
  H      3.853418    3.286962    3.954296
  H      3.180285    5.682701    4.065164
  H      1.345525    6.525945    2.609005
  H      0.195138    4.992915    1.036009
  H      0.109163   -5.623720    1.335842
  H      2.364713   -6.572328    1.823672
  H      4.405991   -5.304676    1.170788
  H      4.209775   -3.111559    0.043032
  H      5.836543    1.378558   -0.188273
  H      6.976709    0.404412   -2.177797
  H      5.856091   -1.380074   -3.503845
  H      3.606291   -2.194595   -2.849493
  O      0.133165    0.633767   -2.001079
  P      0.590939    2.083733    0.454316
  P      1.798523   -1.427586   -0.598317
  H      2.685407    1.738369    2.397098
  H     -0.885181    3.352887   -1.845047
  H      3.573637    0.569178    0.467744
  H     -0.098542   -3.413989    0.232178
  Cu     0.564263   -0.151404    0.855717
  C     -0.953759   -1.648274    2.903685
  C     -1.257489   -2.439605    4.015238
  C     -0.237722   -2.782125    4.895508
  C      1.057072   -2.330696    4.640591
  C      1.275728   -1.539414    3.518414
  H     -2.279499   -2.789105    4.171953
  H      1.887925   -2.583706    5.300370
  H      2.276616   -1.164532    3.281785
  N      0.299777   -1.195245    2.670021
  H     -0.449426   -3.402833    5.768264
  C     -1.931633   -1.281567    1.887848
  C     -3.307826   -1.371367    1.804462
  H     -4.061541   -1.724061    2.500341
  N     -1.493226   -0.725114    0.722156
  N     -2.491768   -0.473040   -0.065453
  N     -3.607703   -0.859015    0.584623
  C     -4.882227   -0.690222   -0.021608
  C     -6.005345   -1.317037    0.519663
  C     -5.001803    0.115202   -1.158208
  C     -7.248405   -1.126094   -0.077065
  H     -5.918599   -1.959142    1.397658
  C     -6.251146    0.288628   -1.740419
  H     -4.119359    0.605747   -1.570343
  C     -7.400260   -0.323769   -1.215788
  H     -8.123871   -1.618667    0.353817
  H     -6.339310    0.924440   -2.625587
  C     -8.731981   -0.140226   -1.866187
  H     -8.815125   -0.748649   -2.780445
  H     -9.555792   -0.436077   -1.204706
  H     -8.894611    0.902037   -2.173486

 Total Charge           Charge          ....    1
 Multiplicity           Mult            ....    1
 Number of Electrons    NEL             ....  434
 Basis Dimension        Dim             .... 1037

ORBITAL ENERGIES
----------------

  NO   OCC          E(Eh)            E(eV)
   0   2.0000    -325.432944     -8855.4806
   1   2.0000     -78.287764     -2130.3184
   2   2.0000     -78.287538     -2130.3122
   3   2.0000     -39.654454     -1079.0526
   4   2.0000     -34.702640      -944.3068
   5   2.0000     -34.702452      -944.3017
   6   2.0000     -34.702273      -944.2968
   7   2.0000     -19.785740      -538.3974
   8   2.0000     -14.974151      -407.4674
   9   2.0000     -14.936061      -406.4309
  10   2.0000     -14.910810      -405.7438
  11   2.0000     -14.886527      -405.0830
  12   2.0000     -10.712218      -291.4943
  13   2.0000     -10.710540      -291.4486
  14   2.0000     -10.704799      -291.2924
  15   2.0000     -10.701212      -291.1948
  16   2.0000     -10.695365      -291.0357
  17   2.0000     -10.689042      -290.8636
  18   2.0000     -10.684987      -290.7533
  19   2.0000     -10.666150      -290.2407
  20   2.0000     -10.657410      -290.0029
  21   2.0000     -10.652538      -289.8703
  22   2.0000     -10.652285      -289.8634
  23   2.0000     -10.650566      -289.8166
  24   2.0000     -10.649843      -289.7970
  25   2.0000     -10.648488      -289.7601
  26   2.0000     -10.648439      -289.7588
  27   2.0000     -10.647526      -289.7339
  28   2.0000     -10.647412      -289.7308
  29   2.0000     -10.647403      -289.7306
  30   2.0000     -10.646975      -289.7189
  31   2.0000     -10.646818      -289.7146
  32   2.0000     -10.646617      -289.7092
  33   2.0000     -10.645915      -289.6901
  34   2.0000     -10.645501      -289.6788
  35   2.0000     -10.645302      -289.6734
  36   2.0000     -10.645229      -289.6714
  37   2.0000     -10.644841      -289.6609
  38   2.0000     -10.644778      -289.6591
  39   2.0000     -10.644287      -289.6458
  40   2.0000     -10.643972      -289.6372
  41   2.0000     -10.643806      -289.6327
  42   2.0000     -10.642855      -289.6068
  43   2.0000     -10.642476      -289.5965
  44   2.0000     -10.642363      -289.5934
  45   2.0000     -10.642091      -289.5860
  46   2.0000     -10.641651      -289.5741
  47   2.0000     -10.641404      -289.5673
  48   2.0000     -10.640952      -289.5550
  49   2.0000     -10.640790      -289.5506
  50   2.0000     -10.640655      -289.5469
  51   2.0000     -10.640337      -289.5383
  52   2.0000     -10.639995      -289.5290
  53   2.0000     -10.639904      -289.5265
  54   2.0000     -10.639530      -289.5163
  55   2.0000     -10.639491      -289.5153
  56   2.0000     -10.639448      -289.5141
  57   2.0000     -10.639290      -289.5098
  58   2.0000     -10.638428      -289.4863
  59   2.0000     -10.638024      -289.4754
  60   2.0000     -10.636112      -289.4233
  61   2.0000     -10.624821      -289.1161
  62   2.0000      -6.971045      -189.6918
  63   2.0000      -6.970569      -189.6788
  64   2.0000      -5.026027      -136.7651
  65   2.0000      -5.025847      -136.7602
  66   2.0000      -5.025572      -136.7528
  67   2.0000      -5.025420      -136.7486
  68   2.0000      -5.024435      -136.7218
  69   2.0000      -5.023994      -136.7098
  70   2.0000      -4.579605      -124.6174
  71   2.0000      -3.000386       -81.6447
  72   2.0000      -2.998022       -81.5803
  73   2.0000      -2.995438       -81.5100
  74   2.0000      -1.271020       -34.5862
  75   2.0000      -1.235209       -33.6118
  76   2.0000      -1.104908       -30.0661
  77   2.0000      -1.076400       -29.2903
  78   2.0000      -0.998586       -27.1729
  79   2.0000      -0.990095       -26.9419
  80   2.0000      -0.987872       -26.8814
  81   2.0000      -0.986394       -26.8411
  82   2.0000      -0.981585       -26.7103
  83   2.0000      -0.980735       -26.6871
  84   2.0000      -0.977944       -26.6112
  85   2.0000      -0.963145       -26.2085
  86   2.0000      -0.936136       -25.4736
  87   2.0000      -0.902672       -24.5629
  88   2.0000      -0.897872       -24.4323
  89   2.0000      -0.897002       -24.4087
  90   2.0000      -0.887349       -24.1460
  91   2.0000      -0.882620       -24.0173
  92   2.0000      -0.867729       -23.6121
  93   2.0000      -0.866258       -23.5721
  94   2.0000      -0.864379       -23.5210
  95   2.0000      -0.862308       -23.4646
  96   2.0000      -0.861725       -23.4487
  97   2.0000      -0.860615       -23.4185
  98   2.0000      -0.859049       -23.3759
  99   2.0000      -0.857821       -23.3425
 100   2.0000      -0.857244       -23.3268
 101   2.0000      -0.840829       -22.8801
 102   2.0000      -0.815294       -22.1853
 103   2.0000      -0.779188       -21.2028
 104   2.0000      -0.764680       -20.8080
 105   2.0000      -0.761027       -20.7086
 106   2.0000      -0.755839       -20.5674
 107   2.0000      -0.738506       -20.0958
 108   2.0000      -0.731027       -19.8923
 109   2.0000      -0.727352       -19.7923
 110   2.0000      -0.715200       -19.4616
 111   2.0000      -0.709452       -19.3052
 112   2.0000      -0.704960       -19.1829
 113   2.0000      -0.703924       -19.1548
 114   2.0000      -0.702717       -19.1219
 115   2.0000      -0.698667       -19.0117
 116   2.0000      -0.697495       -18.9798
 117   2.0000      -0.693179       -18.8624
 118   2.0000      -0.692807       -18.8522
 119   2.0000      -0.677949       -18.4479
 120   2.0000      -0.676973       -18.4214
 121   2.0000      -0.656921       -17.8757
 122   2.0000      -0.656231       -17.8570
 123   2.0000      -0.652604       -17.7583
 124   2.0000      -0.631553       -17.1854
 125   2.0000      -0.619199       -16.8493
 126   2.0000      -0.605268       -16.4702
 127   2.0000      -0.603345       -16.4178
 128   2.0000      -0.596932       -16.2433
 129   2.0000      -0.591458       -16.0944
 130   2.0000      -0.589276       -16.0350
 131   2.0000      -0.586594       -15.9620
 132   2.0000      -0.579383       -15.7658
 133   2.0000      -0.576041       -15.6749
 134   2.0000      -0.567532       -15.4433
 135   2.0000      -0.566201       -15.4071
 136   2.0000      -0.563246       -15.3267
 137   2.0000      -0.557370       -15.1668
 138   2.0000      -0.553043       -15.0491
 139   2.0000      -0.548808       -14.9338
 140   2.0000      -0.542312       -14.7571
 141   2.0000      -0.541417       -14.7327
 142   2.0000      -0.539450       -14.6792
 143   2.0000      -0.538314       -14.6483
 144   2.0000      -0.531332       -14.4583
 145   2.0000      -0.529237       -14.4013
 146   2.0000      -0.526162       -14.3176
 147   2.0000      -0.525284       -14.2937
 148   2.0000      -0.522605       -14.2208
 149   2.0000      -0.520068       -14.1518
 150   2.0000      -0.517853       -14.0915
 151   2.0000      -0.511874       -13.9288
 152   2.0000      -0.508643       -13.8409
 153   2.0000      -0.507487       -13.8094
 154   2.0000      -0.503678       -13.7058
 155   2.0000      -0.503456       -13.6997
 156   2.0000      -0.501984       -13.6597
 157   2.0000      -0.500724       -13.6254
 158   2.0000      -0.498921       -13.5763
 159   2.0000      -0.497896       -13.5484
 160   2.0000      -0.496323       -13.5056
 161   2.0000      -0.489924       -13.3315
 162   2.0000      -0.488849       -13.3023
 163   2.0000      -0.487043       -13.2531
 164   2.0000      -0.484544       -13.1851
 165   2.0000      -0.472958       -12.8699
 166   2.0000      -0.466405       -12.6915
 167   2.0000      -0.459210       -12.4957
 168   2.0000      -0.455743       -12.4014
 169   2.0000      -0.454768       -12.3749
 170   2.0000      -0.451533       -12.2868
 171   2.0000      -0.449510       -12.2318
 172   2.0000      -0.447475       -12.1764
 173   2.0000      -0.444325       -12.0907
 174   2.0000      -0.443277       -12.0622
 175   2.0000      -0.439974       -11.9723
 176   2.0000      -0.437304       -11.8996
 177   2.0000      -0.435124       -11.8403
 178   2.0000      -0.433247       -11.7892
 179   2.0000      -0.427860       -11.6427
 180   2.0000      -0.420710       -11.4481
 181   2.0000      -0.420278       -11.4363
 182   2.0000      -0.419460       -11.4141
 183   2.0000      -0.417727       -11.3669
 184   2.0000      -0.417012       -11.3475
 185   2.0000      -0.412925       -11.2363
 186   2.0000      -0.410859       -11.1801
 187   2.0000      -0.403934       -10.9916
 188   2.0000      -0.401643       -10.9293
 189   2.0000      -0.399712       -10.8767
 190   2.0000      -0.398151       -10.8342
 191   2.0000      -0.395521       -10.7627
 192   2.0000      -0.393300       -10.7022
 193   2.0000      -0.388834       -10.5807
 194   2.0000      -0.384801       -10.4710
 195   2.0000      -0.366819        -9.9817
 196   2.0000      -0.359186        -9.7740
 197   2.0000      -0.345445        -9.4000
 198   2.0000      -0.343078        -9.3356
 199   2.0000      -0.325441        -8.8557
 200   2.0000      -0.320550        -8.7226
 201   2.0000      -0.317829        -8.6486
 202   2.0000      -0.313956        -8.5432
 203   2.0000      -0.312363        -8.4998
 204   2.0000      -0.311151        -8.4668
 205   2.0000      -0.308201        -8.3866
 206   2.0000      -0.307168        -8.3585
 207   2.0000      -0.304284        -8.2800
 208   2.0000      -0.303706        -8.2642
 209   2.0000      -0.302241        -8.2244
 210   2.0000      -0.301116        -8.1938
 211   2.0000      -0.298914        -8.1339
 212   2.0000      -0.298612        -8.1256
 213   2.0000      -0.285357        -7.7650
 214   2.0000      -0.280002        -7.6192
 215   2.0000      -0.277785        -7.5589
 216   2.0000      -0.252347        -6.8667
 217   0.0000      -0.015447        -0.4203
 218   0.0000      -0.007791        -0.2120
 219   0.0000       0.004630         0.1260
 220   0.0000       0.008519         0.2318
 221   0.0000       0.012347         0.3360

MULLIKEN ATOMIC CHARGES
-----------------------
   0 C :   -0.250238
   1 C :    0.246042
   2 C :   -0.055582
   3 C :    0.000980
   4 C :   -0.014717
   5 C :   -0.030756
   6 C :   -0.209610
   7 C :    0.204383
   8 C :   -0.026997
   9 C :   -0.005130
  10 C :   -0.010457
  11 C :   -0.026680
  12 C :   -0.213011
  13 C :   -0.016444
  14 C :   -0.019384
  15 C :   -0.017018
  16 C :   -0.029273
  17 C :   -0.007886
  18 C :   -0.246722
  19 C :   -0.011957
  20 C :   -0.020390
  21 C :   -0.012931
  22 C :   -0.019729
  23 C :    0.006882
  24 C :   -0.231089
  25 C :   -0.009272
  26 C :   -0.026741
  27 C :   -0.017080
  28 C :   -0.018367
  29 C :   -0.023010
  30 C :   -0.226487
  31 C :    0.015678
  32 C :   -0.021918
  33 C :   -0.014990
  34 C :   -0.023473
  35 C :    0.003543
  36 H :    0.039084
  37 H :    0.041071
  38 H :    0.032283
  39 H :    0.044681
  40 H :    0.031184
  41 H :    0.044118
  42 H :    0.036619
  43 H :    0.049080
  44 H :    0.033375
  45 H :    0.036485
  46 H :    0.034331
  47 H :    0.038237
  48 H :    0.034616
  49 H :    0.040340
  50 H :    0.036979
  51 H :    0.039909
  52 H :    0.034478
  53 H :    0.037093
  54 H :    0.034853
  55 H :    0.042265
  56 H :    0.035128
  57 H :    0.040054
  58 H :    0.035815
  59 H :    0.033310
  60 O :   -0.420410
  61 P :    0.603394
  62 P :    0.556768
  63 H :    0.046463
  64 H :    0.040555
  65 H :    0.025414
  66 H :    0.039800
  67 Cu:    0.314398
  68 C :    0.133665
  69 C :   -0.056931
  70 C :    0.069081
  71 C :   -0.060384
  72 C :    0.138610
  73 H :    0.046403
  74 H :    0.054484
  75 H :    0.064741
  76 N :   -0.313467
  77 H :    0.057546
  78 C :    0.122613
  79 C :    0.104652
  80 H :    0.096016
  81 N :   -0.258118
  82 N :    0.003483
  83 N :   -0.213035
  84 C :    0.197163
  85 C :   -0.062349
  86 C :   -0.033089
  87 C :   -0.035757
  88 H :    0.040272
  89 C :   -0.029173
  90 H :    0.042974
  91 C :   -0.100719
  92 H :    0.029191
  93 H :    0.028039
  94 C :    0.074614
  95 H :    0.051451
  96 H :    0.034515
  97 H :    0.041567
Sum of atomic charges:    1.0000000

LOEWDIN ATOMIC CHARGES
----------------------
   0 C :   -0.208028
   1 C :    0.060923
   2 C :   -0.057621
   3 C :   -0.004264
   4 C :   -0.046211
   5 C :   -0.014611
   6 C :   -0.196436
   7 C :    0.058396
   8 C :   -0.037524
   9 C :   -0.007601
  10 C :   -0.034620
  11 C :   -0.014186
  12 C :   -0.179451
  13 C :   -0.030396
  14 C :   -0.031536
  15 C :   -0.023183
  16 C :   -0.032797
  17 C :   -0.027965
  18 C :   -0.191792
  19 C :   -0.026944
  20 C :   -0.031055
  21 C :   -0.016173
  22 C :   -0.029504
  23 C :   -0.021142
  24 C :   -0.185113
  25 C :   -0.028319
  26 C :   -0.030541
  27 C :   -0.024299
  28 C :   -0.029914
  29 C :   -0.033763
  30 C :   -0.192107
  31 C :   -0.020497
  32 C :   -0.031194
  33 C :   -0.015751
  34 C :   -0.031768
  35 C :   -0.019459
  36 H :    0.044787
  37 H :    0.042587
  38 H :    0.038978
  39 H :    0.039396
  40 H :    0.046473
  41 H :    0.043750
  42 H :    0.041348
  43 H :    0.040058
  44 H :    0.038593
  45 H :    0.038675
  46 H :    0.038601
  47 H :    0.036208
  48 H :    0.039666
  49 H :    0.040582
  50 H :    0.040036
  51 H :    0.037888
  52 H :    0.039060
  53 H :    0.039258
  54 H :    0.039249
  55 H :    0.036738
  56 H :    0.039330
  57 H :    0.040412
  58 H :    0.039569
  59 H :    0.037436
  60 O :   -0.107974
  61 P :    0.787067
  62 P :    0.776824
  63 H :    0.037193
  64 H :    0.036163
  65 H :    0.034077
  66 H :    0.036237
  67 Cu:   -0.229822
  68 C :    0.035403
  69 C :   -0.025489
  70 C :    0.034236
  71 C :   -0.039133
  72 C :    0.063970
  73 H :    0.050607
  74 H :    0.049827
  75 H :    0.040655
  76 N :   -0.033948
  77 H :    0.051973
  78 C :   -0.052473
  79 C :    0.047438
  80 H :    0.062264
  81 N :   -0.013111
  82 N :   -0.052645
  83 N :    0.105014
  84 C :    0.006805
  85 C :   -0.027991
  86 C :   -0.021975
  87 C :   -0.023034
  88 H :    0.046728
  89 C :   -0.020031
  90 H :    0.041328
  91 C :   -0.022615
  92 H :    0.040405
  93 H :    0.040413
  94 C :   -0.037268
  95 H :    0.041132
  96 H :    0.032960
  97 H :    0.036556

  Mayer bond orders larger than 0.100000
B(  0-C ,  1-C ) :   1.3738 B(  0-C ,  5-C ) :   1.4153 B(  0-C , 61-P ) :   0.9567
B(  1-C ,  2-C ) :   1.3880 B(  1-C , 60-O ) :   0.9960 B(  2-C ,  3-C ) :   1.3578
B(  2-C , 36-H ) :   0.9976 B(  3-C ,  4-C ) :   1.3781 B(  3-C , 37-H ) :   0.9937
B(  4-C ,  5-C ) :   1.3857 B(  4-C , 38-H ) :   1.0002 B(  5-C , 39-H ) :   0.9895
B(  6-C ,  7-C ) :   1.3773 B(  6-C , 11-C ) :   1.3977 B(  6-C , 62-P ) :   0.9636
B(  7-C ,  8-C ) :   1.4331 B(  7-C , 60-O ) :   0.9362 B(  8-C ,  9-C ) :   1.3500
B(  8-C , 40-H ) :   1.0029 B(  9-C , 10-C ) :   1.3749 B(  9-C , 41-H ) :   0.9940
B( 10-C , 11-C ) :   1.4001 B( 10-C , 42-H ) :   0.9999 B( 11-C , 43-H ) :   0.9827
B( 12-C , 13-C ) :   1.4090 B( 12-C , 17-C ) :   1.3628 B( 12-C , 61-P ) :   0.9673
B( 13-C , 14-C ) :   1.3899 B( 13-C , 64-H ) :   0.9889 B( 14-C , 15-C ) :   1.3918
B( 14-C , 44-H ) :   0.9958 B( 15-C , 16-C ) :   1.3700 B( 15-C , 45-H ) :   0.9977
B( 16-C , 17-C ) :   1.4222 B( 16-C , 46-H ) :   0.9987 B( 17-C , 47-H ) :   0.9900
B( 18-C , 19-C ) :   1.3772 B( 18-C , 23-C ) :   1.3678 B( 18-C , 61-P ) :   0.9787
B( 19-C , 20-C ) :   1.4005 B( 19-C , 63-H ) :   0.9887 B( 20-C , 21-C ) :   1.3843
B( 20-C , 48-H ) :   0.9998 B( 21-C , 22-C ) :   1.3780 B( 21-C , 49-H ) :   0.9970
B( 22-C , 23-C ) :   1.4066 B( 22-C , 50-H ) :   0.9984 B( 23-C , 51-H ) :   0.9948
B( 24-C , 25-C ) :   1.3534 B( 24-C , 29-C ) :   1.4084 B( 24-C , 62-P ) :   0.9655
B( 25-C , 26-C ) :   1.4313 B( 25-C , 66-H ) :   0.9888 B( 26-C , 27-C ) :   1.3654
B( 26-C , 52-H ) :   0.9980 B( 27-C , 28-C ) :   1.3981 B( 27-C , 53-H ) :   0.9976
B( 28-C , 29-C ) :   1.3861 B( 28-C , 54-H ) :   0.9959 B( 29-C , 55-H ) :   0.9919
B( 30-C , 31-C ) :   1.3859 B( 30-C , 35-C ) :   1.3547 B( 30-C , 62-P ) :   0.9901
B( 31-C , 32-C ) :   1.3913 B( 31-C , 65-H ) :   0.9907 B( 32-C , 33-C ) :   1.3895
B( 32-C , 56-H ) :   0.9996 B( 33-C , 34-C ) :   1.3699 B( 33-C , 57-H ) :   0.9973
B( 34-C , 35-C ) :   1.4147 B( 34-C , 58-H ) :   0.9985 B( 35-C , 59-H ) :   0.9961
B( 61-P , 67-Cu) :   0.6183 B( 62-P , 67-Cu) :   0.5731 B( 67-Cu, 76-N ) :   0.3101
B( 67-Cu, 81-N ) :   0.2614 B( 68-C , 69-C ) :   1.4042 B( 68-C , 76-N ) :   1.3992
B( 68-C , 78-C ) :   1.0080 B( 69-C , 70-C ) :   1.4034 B( 69-C , 73-H ) :   0.9835
B( 70-C , 71-C ) :   1.3861 B( 70-C , 77-H ) :   0.9855 B( 71-C , 72-C ) :   1.4122
B( 71-C , 74-H ) :   0.9866 B( 72-C , 75-H ) :   0.9732 B( 72-C , 76-N ) :   1.4039
B( 78-C , 79-C ) :   1.4441 B( 78-C , 81-N ) :   1.2830 B( 79-C , 80-H ) :   0.9874
B( 79-C , 83-N ) :   1.2186 B( 81-N , 82-N ) :   1.4321 B( 82-N , 83-N ) :   1.1405
B( 83-N , 84-C ) :   0.8892 B( 84-C , 85-C ) :   1.3792 B( 84-C , 86-C ) :   1.3755
B( 85-C , 87-C ) :   1.3883 B( 85-C , 88-H ) :   1.0025 B( 86-C , 89-C ) :   1.3957
B( 86-C , 90-H ) :   0.9947 B( 87-C , 91-C ) :   1.3955 B( 87-C , 92-H ) :   0.9968
B( 89-C , 91-C ) :   1.3718 B( 89-C , 93-H ) :   1.0004 B( 91-C , 94-C ) :   1.0432
B( 94-C , 95-H ) :   0.9584 B( 94-C , 96-H ) :   0.9698 B( 94-C , 97-H ) :   0.9652

MP2 TOTAL ENERGY:    -4541.889013654 Eh

-----------------------------------------------------------------------------
         ABSORPTION SPECTRUM VIA TRANSITION ELECTRIC DIPOLE MOMENTS
-----------------------------------------------------------------------------
State   Energy    Wavelength  fosc         T2        TX        TY        TZ
        (cm-1)      (nm)                 (au**2)    (au)      (au)      (au)
-----------------------------------------------------------------------------
   1   21646.7    462.0   0.069009043   1.04952   0.54926   0.43979  -0.74459
   2   31059.9    322.0   0.504372985   5.34598   2.09442  -0.34857   0.91536
   3   31780.4    314.7   0.139647027   1.44660   1.11016   0.00531   0.46272
   4   30525.4    327.6   0.117968799   1.27228   0.05102  -0.61557  -0.94380
   5   24960.4    400.6   0.032162985   0.42421  -0.41810   0.33167   0.37336
   6   32901.8    303.9   0.077687214   0.77733   0.18736  -0.85215  -0.12672
   7   30972.4    322.9   0.118882586   1.26363   0.49037   0.65312  -0.77240
   8   29401.1    340.1   0.176095147   1.97178  -1.21986   0.62303  -0.30912
   9   29739.8    336.2   0.063378410   0.70158  -0.65473   0.19551  -0.48444
  10   32767.9    305.2   0.094370767   0.94812   0.83678   0.31166   0.38833
  11   35921.8    278.4   0.104359832   0.95642   0.53503   0.03120   0.81805
  12   39125.9    255.6   0.013582848   0.11429  -0.29245   0.05604  -0.16007
  13   37506.3    266.6   0.033651274   0.29537   0.37298  -0.27695   0.28206
  14   37277.7    268.3   0.005791564   0.05115   0.01741  -0.21144   0.07835
  15   38103.4    262.4   0.031202653   0.26959  -0.10039   0.44055  -0.25580
  16   37955.5    263.5   0.004399732   0.03816  -0.14432   0.01271  -0.13104
  17   33351.2    299.8   0.023982594   0.23673   0.33806   0.13424   0.32316
  18   40234.8    248.5   0.001858358   0.01521   0.07375  -0.09406   0.03032
  19   36512.2    273.9   0.047578023   0.42899  -0.11169  -0.61986   0.17970
  20   37546.0    266.3   0.037012619   0.32453   0.05749   0.29185  -0.48585
  21   29203.9    342.4   0.012533018   0.14128   0.31015   0.08513  -0.19453
  22   36945.5    270.7   0.087107476   0.77619   0.57284  -0.66303  -0.09189
  23   38918.3    256.9   0.088569287   0.74921   0.34282   0.77565   0.17337
  24   37200.3    268.8   0.043924377   0.38872  -0.46371  -0.09877  -0.40489
  25   34617.7    288.9   0.002325616   0.02212   0.07312   0.10868   0.07042
  26   37345.2    267.8   0.077594496   0.68402  -0.24134  -0.77277   0.16914
  27   42381.4    236.0   0.009226419   0.07167  -0.22170   0.03044  -0.14694
  28   36611.2    273.1   0.051140768   0.45986   0.00742   0.40193  -0.54614
  29   35933.9    278.3   0.076037453   0.69662  -0.58793   0.57428   0.14548
  30   36284.8    275.6   0.051035576   0.46305   0.63249  -0.23494   0.08836
  31   35915.2    278.4   0.021054888   0.19300   0.37908  -0.07891   0.20753
  32   41101.1    243.3   0.014463294   0.11585   0.00346  -0.17163  -0.29391
  33   40699.7    245.7   0.072697149   0.58803   0.20746  -0.44667   0.58777
  34   38338.3    260.8   0.132868123   1.14094  -0.88164   0.37303  -0.47381
  35   39394.9    253.8   0.035895235   0.29997   0.09657   0.31975  -0.43405
  36   39908.6    250.6   0.044256987   0.36508   0.19764   0.56662  -0.07048
  37   40806.0    245.1   0.004181602   0.03374   0.08096   0.14732   0.07402
  38   37851.6    264.2   0.032694556   0.28436  -0.14338   0.45595   0.23646
  39   35950.4    278.2   0.037185915   0.34053   0.01147   0.50908  -0.28501
  40   36666.5    272.7   0.025276130   0.22694   0.39048  -0.09922   0.25422

FINAL SINGLE POINT ENERGY     -4539.104865767810

DIPOLE MOMENT
-------------
                                X             Y             Z
Electronic contribution:     14.12730      -2.82263      11.15407
Nuclear contribution   :    -15.34854       1.07561      -9.10706
                        -----------------------------------------
Total Dipole Moment    :     -1.22123      -1.74702       2.04700
                        -----------------------------------------
Magnitude (a.u.)       :      2.95529
Magnitude (Debye)      :      7.51174

Rotational constants in cm-1:     0.001847     0.001372     0.001226
Rotational constants in MHz :    55.376394    41.117827    36.746550

                             ****ORCA TERMINATED NORMALLY****
TOTAL RUN TIME: 0 days 15 hours 11 minutes 2 seconds 380 msec
