                         Program Version 5.0.4 -  RELEASE  -
|  1> %maxcore 8000
|  2> %pal
|  3>  nprocs 8
|  4> end
|  5> ! RI-SOS-wPBEPP86 def2-SVP def2/J def2-SVP/C RIJCOSX CPCM TIGHTSCF
|  6>
|  7> %TDDFT
|  8>     DCORR     1
|  9>     NROOTS    40
| 10>     doscs     TRUE
| 11>     TDA       FALSE
| 12> END
| 13>
| 14> %CPCM
| 15>     SMD		TRUE
| 16>     SMDsolvent	"DMF"
| 17> END
| 18>
| 19> * xyz 2 1
| 20> C                  -1.67762600   -2.06917600    0.26663300
| 21> C                  -2.41976900   -0.35506600   -1.10525600
| 22> C                  -3.64054900   -1.01297700   -1.38146000
| 23> C                  -3.83977500   -2.26012400   -0.78603600
| 24> C                  -2.86017500   -2.81414300    0.05348900
| 25> C                  -0.64603500   -2.57041500    1.10931800
| 26> C                   1.44308500   -2.22864100    2.05449600
| 27> C                   1.37107100   -3.45610900    2.72594600
| 28> C                   0.25377000   -4.25800100    2.57879900
| 29> C                  -0.79899200   -3.82255400    1.74914100
| 30> H                  -2.20348800    0.61917600   -1.54629500
| 31> H                  -4.75670000   -2.82685600   -0.95693900
| 32> H                   2.31664400   -1.58092100    2.16092700
| 33> H                   2.20519900   -3.76067100    3.35881600
| 34> H                   0.17640700   -5.21804400    3.09326600
| 35> C                  -0.67339700    2.70837900   -0.05312000
| 36> C                   0.28364100    2.10199200   -2.07678600
| 37> C                  -0.06962300    3.33263900   -2.64593400
| 38> C                  -0.74150200    4.27374300   -1.88863600
| 39> C                  -1.06092100    3.97552600   -0.54795300
| 40> C                  -0.98229700    2.33684100    1.28747800
| 41> C                  -0.86513200    0.71554500    2.94084800
| 42> C                  -1.52816500    1.55169900    3.84900700
| 43> C                  -1.93001300    2.81414400    3.45518900
| 44> C                  -1.66090300    3.24064700    2.13824800
| 45> H                   0.81430900    1.34564600   -2.66004600
| 46> H                   0.19565500    3.52842800   -3.68531800
| 47> H                  -1.02608800    5.23987000   -2.31036100
| 48> H                  -0.54138600   -0.28590700    3.23440100
| 49> H                  -1.72009400    1.18704000    4.85864000
| 50> H                  -2.45085000    3.48178900    4.14451300
| 51> C                   3.23412000    0.19880600   -0.22862400
| 52> C                   2.68339500    1.39646100    1.67891500
| 53> C                   4.02351900    1.75439600    1.87621500
| 54> C                   4.99043500    1.31827600    0.98984900
| 55> C                   4.60716500    0.51520700   -0.10406100
| 56> C                   2.77992400   -0.61361700   -1.30748600
| 57> C                   0.98382300   -1.63523300   -2.36009000
| 58> C                   1.82485800   -2.15757100   -3.35148700
| 59> C                   3.18147600   -1.89533500   -3.31194000
| 60> C                   3.69765300   -1.10225100   -2.26646500
| 61> H                   1.90544100    1.73094300    2.36951600
| 62> H                   6.04067700    1.58549700    1.12343700
| 63> H                  -0.09133400   -1.82982300   -2.37615000
| 64> H                   3.85546200   -2.29168000   -4.07407900
| 65> N                   2.29071800    0.63576100    0.65528400
| 66> N                   0.46103900   -1.78766600    1.26545600
| 67> N                  -0.59313200    1.09239100    1.69009600
| 68> N                  -1.47103100   -0.85747600   -0.31699100
| 69> N                  -0.01102000    1.78870800   -0.81332900
| 70> N                   1.44226000   -0.87808700   -1.36144800
| 71> Ru                  0.36080900   -0.00017200    0.18929900
| 72> C                   5.51802000    0.00759000   -1.08472300
| 73> C                   5.08178500   -0.76686700   -2.12215900
| 74> C                  -2.00317200   -4.56431000    1.51982500
| 75> C                  -2.99008000   -4.08297000    0.70778800
| 76> C                  -2.03492300    4.52072000    1.61867400
| 77> C                  -1.75019700    4.87194600    0.32958100
| 78> H                   5.78528600   -1.14774300   -2.86536700
| 79> H                   6.57648500    0.25619200   -0.98346900
| 80> H                  -3.90321000   -4.65855900    0.54243700
| 81> H                  -2.11475400   -5.53118100    2.01503300
| 82> H                  -2.04404200    5.84954600   -0.05820200
| 83> H                  -2.55962000    5.21304700    2.28029100
| 84> H                   4.28251500    2.37741300    2.73292400
| 85> H                   1.39050900   -2.76799900   -4.14390000
| 86> C                  -4.63221300   -0.36219000   -2.26657700
| 87> C                  -5.80902100   -0.94423200   -2.56200300
| 88> H                  -6.10834500   -1.92100400   -2.17663300
| 89> H                  -6.52586300   -0.44316400   -3.21675100
| 90> C                  -4.28434800    0.98137800   -2.82737800
| 91> H                  -4.09873700    1.72172300   -2.03314000
| 92> H                  -3.36834600    0.94781100   -3.43802900
| 93> H                  -5.09264700    1.36665600   -3.45976600
| 94> *
| 95>
| 96>                          ****END OF INPUT****

CARTESIAN COORDINATES (ANGSTROEM)
---------------------------------
  C     -1.677626   -2.069176    0.266633
  C     -2.419769   -0.355066   -1.105256
  C     -3.640549   -1.012977   -1.381460
  C     -3.839775   -2.260124   -0.786036
  C     -2.860175   -2.814143    0.053489
  C     -0.646035   -2.570415    1.109318
  C      1.443085   -2.228641    2.054496
  C      1.371071   -3.456109    2.725946
  C      0.253770   -4.258001    2.578799
  C     -0.798992   -3.822554    1.749141
  H     -2.203488    0.619176   -1.546295
  H     -4.756700   -2.826856   -0.956939
  H      2.316644   -1.580921    2.160927
  H      2.205199   -3.760671    3.358816
  H      0.176407   -5.218044    3.093266
  C     -0.673397    2.708379   -0.053120
  C      0.283641    2.101992   -2.076786
  C     -0.069623    3.332639   -2.645934
  C     -0.741502    4.273743   -1.888636
  C     -1.060921    3.975526   -0.547953
  C     -0.982297    2.336841    1.287478
  C     -0.865132    0.715545    2.940848
  C     -1.528165    1.551699    3.849007
  C     -1.930013    2.814144    3.455189
  C     -1.660903    3.240647    2.138248
  H      0.814309    1.345646   -2.660046
  H      0.195655    3.528428   -3.685318
  H     -1.026088    5.239870   -2.310361
  H     -0.541386   -0.285907    3.234401
  H     -1.720094    1.187040    4.858640
  H     -2.450850    3.481789    4.144513
  C      3.234120    0.198806   -0.228624
  C      2.683395    1.396461    1.678915
  C      4.023519    1.754396    1.876215
  C      4.990435    1.318276    0.989849
  C      4.607165    0.515207   -0.104061
  C      2.779924   -0.613617   -1.307486
  C      0.983823   -1.635233   -2.360090
  C      1.824858   -2.157571   -3.351487
  C      3.181476   -1.895335   -3.311940
  C      3.697653   -1.102251   -2.266465
  H      1.905441    1.730943    2.369516
  H      6.040677    1.585497    1.123437
  H     -0.091334   -1.829823   -2.376150
  H      3.855462   -2.291680   -4.074079
  N      2.290718    0.635761    0.655284
  N      0.461039   -1.787666    1.265456
  N     -0.593132    1.092391    1.690096
  N     -1.471031   -0.857476   -0.316991
  N     -0.011020    1.788708   -0.813329
  N      1.442260   -0.878087   -1.361448
  Ru     0.360809   -0.000172    0.189299
  C      5.518020    0.007590   -1.084723
  C      5.081785   -0.766867   -2.122159
  C     -2.003172   -4.564310    1.519825
  C     -2.990080   -4.082970    0.707788
  C     -2.034923    4.520720    1.618674
  C     -1.750197    4.871946    0.329581
  H      5.785286   -1.147743   -2.865367
  H      6.576485    0.256192   -0.983469
  H     -3.903210   -4.658559    0.542437
  H     -2.114754   -5.531181    2.015033
  H     -2.044042    5.849546   -0.058202
  H     -2.559620    5.213047    2.280291
  H      4.282515    2.377413    2.732924
  H      1.390509   -2.767999   -4.143900
  C     -4.632213   -0.362190   -2.266577
  C     -5.809021   -0.944232   -2.562003
  H     -6.108345   -1.921004   -2.176633
  H     -6.525863   -0.443164   -3.216751
  C     -4.284348    0.981378   -2.827378
  H     -4.098737    1.721723   -2.033140
  H     -3.368346    0.947811   -3.438029
  H     -5.092647    1.366656   -3.459766

 Total Charge           Charge          ....    2
 Multiplicity           Mult            ....    1
 Number of Electrons    NEL             ....  318
 Basis Dimension        Dim             ....  801

ORBITAL ENERGIES
----------------

  NO   OCC          E(Eh)            E(eV)
   0   2.0000     -15.202043      -413.6686
   1   2.0000     -15.201897      -413.6646
   2   2.0000     -15.201626      -413.6573
   3   2.0000     -15.201616      -413.6570
   4   2.0000     -15.201539      -413.6549
   5   2.0000     -15.201502      -413.6539
   6   2.0000     -10.947961      -297.9092
   7   2.0000     -10.947662      -297.9010
   8   2.0000     -10.947464      -297.8956
   9   2.0000     -10.947201      -297.8885
  10   2.0000     -10.946916      -297.8807
  11   2.0000     -10.946181      -297.8607
  12   2.0000     -10.945757      -297.8492
  13   2.0000     -10.945423      -297.8401
  14   2.0000     -10.945373      -297.8388
  15   2.0000     -10.945179      -297.8335
  16   2.0000     -10.945093      -297.8311
  17   2.0000     -10.944893      -297.8257
  18   2.0000     -10.918109      -297.0969
  19   2.0000     -10.917981      -297.0934
  20   2.0000     -10.917847      -297.0897
  21   2.0000     -10.917783      -297.0880
  22   2.0000     -10.917741      -297.0868
  23   2.0000     -10.917715      -297.0861
  24   2.0000     -10.917237      -297.0731
  25   2.0000     -10.917022      -297.0673
  26   2.0000     -10.917020      -297.0672
  27   2.0000     -10.916940      -297.0650
  28   2.0000     -10.916905      -297.0641
  29   2.0000     -10.916891      -297.0637
  30   2.0000     -10.914302      -296.9933
  31   2.0000     -10.901854      -296.6545
  32   2.0000     -10.901815      -296.6535
  33   2.0000     -10.901785      -296.6526
  34   2.0000     -10.901696      -296.6502
  35   2.0000     -10.901550      -296.6463
  36   2.0000     -10.901511      -296.6452
  37   2.0000     -10.901446      -296.6434
  38   2.0000     -10.901405      -296.6423
  39   2.0000     -10.900731      -296.6240
  40   2.0000     -10.900720      -296.6237
  41   2.0000     -10.900634      -296.6213
  42   2.0000     -10.898637      -296.5670
  43   2.0000     -10.874899      -295.9210
  44   2.0000     -10.865980      -295.6784
  45   2.0000      -3.376185       -91.8707
  46   2.0000      -2.123342       -57.7791
  47   2.0000      -2.123018       -57.7703
  48   2.0000      -2.116408       -57.5904
  49   2.0000      -1.246445       -33.9175
  50   2.0000      -1.239034       -33.7158
  51   2.0000      -1.238695       -33.7066
  52   2.0000      -1.209568       -32.9140
  53   2.0000      -1.208875       -32.8952
  54   2.0000      -1.208614       -32.8881
  55   2.0000      -1.101406       -29.9708
  56   2.0000      -1.099012       -29.9056
  57   2.0000      -1.098926       -29.9033
  58   2.0000      -1.074129       -29.2285
  59   2.0000      -1.051220       -28.6052
  60   2.0000      -1.050963       -28.5981
  61   2.0000      -1.049627       -28.5618
  62   2.0000      -1.046446       -28.4753
  63   2.0000      -1.046183       -28.4681
  64   2.0000      -1.015930       -27.6448
  65   2.0000      -0.980210       -26.6729
  66   2.0000      -0.979905       -26.6646
  67   2.0000      -0.976965       -26.5846
  68   2.0000      -0.976005       -26.5585
  69   2.0000      -0.975534       -26.5456
  70   2.0000      -0.965350       -26.2685
  71   2.0000      -0.892880       -24.2965
  72   2.0000      -0.873740       -23.7757
  73   2.0000      -0.872436       -23.7402
  74   2.0000      -0.872009       -23.7286
  75   2.0000      -0.857028       -23.3209
  76   2.0000      -0.856433       -23.3047
  77   2.0000      -0.853887       -23.2355
  78   2.0000      -0.847895       -23.0724
  79   2.0000      -0.847625       -23.0651
  80   2.0000      -0.846122       -23.0242
  81   2.0000      -0.811049       -22.0698
  82   2.0000      -0.809174       -22.0187
  83   2.0000      -0.808717       -22.0063
  84   2.0000      -0.761138       -20.7116
  85   2.0000      -0.746997       -20.3268
  86   2.0000      -0.745419       -20.2839
  87   2.0000      -0.742929       -20.2161
  88   2.0000      -0.730382       -19.8747
  89   2.0000      -0.729138       -19.8408
  90   2.0000      -0.708905       -19.2903
  91   2.0000      -0.708428       -19.2773
  92   2.0000      -0.706345       -19.2206
  93   2.0000      -0.706086       -19.2136
  94   2.0000      -0.667491       -18.1634
  95   2.0000      -0.665156       -18.0998
  96   2.0000      -0.664145       -18.0723
  97   2.0000      -0.663836       -18.0639
  98   2.0000      -0.662685       -18.0326
  99   2.0000      -0.657533       -17.8924
 100   2.0000      -0.651514       -17.7286
 101   2.0000      -0.651130       -17.7181
 102   2.0000      -0.649510       -17.6741
 103   2.0000      -0.621882       -16.9223
 104   2.0000      -0.621178       -16.9031
 105   2.0000      -0.617844       -16.8124
 106   2.0000      -0.615039       -16.7361
 107   2.0000      -0.605237       -16.4693
 108   2.0000      -0.603045       -16.4097
 109   2.0000      -0.602587       -16.3972
 110   2.0000      -0.598459       -16.2849
 111   2.0000      -0.598168       -16.2770
 112   2.0000      -0.593062       -16.1380
 113   2.0000      -0.592362       -16.1190
 114   2.0000      -0.591657       -16.0998
 115   2.0000      -0.580304       -15.7909
 116   2.0000      -0.578872       -15.7519
 117   2.0000      -0.576600       -15.6901
 118   2.0000      -0.575068       -15.6484
 119   2.0000      -0.573178       -15.5970
 120   2.0000      -0.569736       -15.5033
 121   2.0000      -0.568188       -15.4612
 122   2.0000      -0.565263       -15.3816
 123   2.0000      -0.561002       -15.2656
 124   2.0000      -0.554696       -15.0940
 125   2.0000      -0.547669       -14.9028
 126   2.0000      -0.544196       -14.8083
 127   2.0000      -0.532567       -14.4919
 128   2.0000      -0.528882       -14.3916
 129   2.0000      -0.523203       -14.2371
 130   2.0000      -0.520149       -14.1540
 131   2.0000      -0.518420       -14.1069
 132   2.0000      -0.512060       -13.9339
 133   2.0000      -0.496375       -13.5070
 134   2.0000      -0.496055       -13.4983
 135   2.0000      -0.495557       -13.4848
 136   2.0000      -0.492916       -13.4129
 137   2.0000      -0.488635       -13.2964
 138   2.0000      -0.485693       -13.2164
 139   2.0000      -0.483870       -13.1668
 140   2.0000      -0.464242       -12.6327
 141   2.0000      -0.463006       -12.5990
 142   2.0000      -0.455205       -12.3868
 143   2.0000      -0.452496       -12.3130
 144   2.0000      -0.445690       -12.1278
 145   2.0000      -0.438623       -11.9355
 146   2.0000      -0.435228       -11.8432
 147   2.0000      -0.430169       -11.7055
 148   2.0000      -0.428239       -11.6530
 149   2.0000      -0.386556       -10.5187
 150   2.0000      -0.363090        -9.8802
 151   2.0000      -0.362897        -9.8749
 152   2.0000      -0.358666        -9.7598
 153   2.0000      -0.352434        -9.5902
 154   2.0000      -0.345015        -9.3883
 155   2.0000      -0.339254        -9.2316
 156   2.0000      -0.328481        -8.9384
 157   2.0000      -0.324343        -8.8258
 158   2.0000      -0.322265        -8.7693
 159   0.0000      -0.011141        -0.3032
 160   0.0000      -0.003423        -0.0931
 161   0.0000      -0.001888        -0.0514
 162   0.0000       0.003110         0.0846
 163   0.0000       0.007933         0.2159

MULLIKEN ATOMIC CHARGES
-----------------------
   0 C :    0.197433
   1 C :    0.187800
   2 C :   -0.076356
   3 C :    0.069750
   4 C :   -0.119660
   5 C :    0.199209
   6 C :    0.174631
   7 C :   -0.113206
   8 C :    0.072843
   9 C :   -0.126605
  10 H :    0.128587
  11 H :    0.098536
  12 H :    0.141915
  13 H :    0.111632
  14 H :    0.108746
  15 C :    0.197138
  16 C :    0.175141
  17 C :   -0.109231
  18 C :    0.070256
  19 C :   -0.121625
  20 C :    0.199284
  21 C :    0.173920
  22 C :   -0.111608
  23 C :    0.071306
  24 C :   -0.124249
  25 H :    0.142642
  26 H :    0.111746
  27 H :    0.109452
  28 H :    0.142593
  29 H :    0.112002
  30 H :    0.109425
  31 C :    0.200068
  32 C :    0.174389
  33 C :   -0.111827
  34 C :    0.072222
  35 C :   -0.123611
  36 C :    0.197941
  37 C :    0.173519
  38 C :   -0.112463
  39 C :    0.072865
  40 C :   -0.125839
  41 H :    0.142895
  42 H :    0.108960
  43 H :    0.143519
  44 H :    0.109010
  45 N :   -0.445872
  46 N :   -0.444224
  47 N :   -0.445565
  48 N :   -0.443072
  49 N :   -0.450423
  50 N :   -0.446413
  51 Ru:    0.723456
  52 C :   -0.007598
  53 C :   -0.007638
  54 C :   -0.004958
  55 C :   -0.009578
  56 C :   -0.008358
  57 C :   -0.007489
  58 H :    0.094547
  59 H :    0.094668
  60 H :    0.095376
  61 H :    0.094263
  62 H :    0.095188
  63 H :    0.095468
  64 H :    0.111667
  65 H :    0.111729
  66 C :   -0.194159
  67 C :   -0.143616
  68 H :    0.100365
  69 H :    0.096715
  70 C :   -0.040791
  71 H :    0.090254
  72 H :    0.090964
  73 H :    0.079998
Sum of atomic charges:    2.0000000

LOEWDIN ATOMIC CHARGES
----------------------
   0 C :    0.053203
   1 C :    0.108480
   2 C :   -0.043711
   3 C :    0.061045
   4 C :   -0.034078
   5 C :    0.054798
   6 C :    0.106914
   7 C :   -0.042010
   8 C :    0.051379
   9 C :   -0.035697
  10 H :    0.058288
  11 H :    0.064746
  12 H :    0.064528
  13 H :    0.065498
  14 H :    0.067733
  15 C :    0.054301
  16 C :    0.107466
  17 C :   -0.041337
  18 C :    0.051898
  19 C :   -0.035428
  20 C :    0.054626
  21 C :    0.107272
  22 C :   -0.041597
  23 C :    0.051594
  24 C :   -0.035524
  25 H :    0.064559
  26 H :    0.065722
  27 H :    0.067886
  28 H :    0.064541
  29 H :    0.065668
  30 H :    0.067777
  31 C :    0.054679
  32 C :    0.107194
  33 C :   -0.041724
  34 C :    0.051309
  35 C :   -0.035763
  36 C :    0.054626
  37 C :    0.107248
  38 C :   -0.041634
  39 C :    0.051481
  40 C :   -0.035829
  41 H :    0.064628
  42 H :    0.067649
  43 H :    0.064713
  44 H :    0.067729
  45 N :    0.050690
  46 N :    0.049362
  47 N :    0.050029
  48 N :    0.055484
  49 N :    0.050104
  50 N :    0.050178
  51 Ru:   -0.610095
  52 C :   -0.009842
  53 C :   -0.010089
  54 C :   -0.010335
  55 C :   -0.009323
  56 C :   -0.009721
  57 C :   -0.010061
  58 H :    0.061376
  59 H :    0.061343
  60 H :    0.061236
  61 H :    0.061381
  62 H :    0.061493
  63 H :    0.061504
  64 H :    0.065584
  65 H :    0.065634
  66 C :   -0.041766
  67 C :   -0.058183
  68 H :    0.039785
  69 H :    0.043221
  70 C :   -0.061531
  71 H :    0.045417
  72 H :    0.045574
  73 H :    0.044703

  Mayer bond orders larger than 0.100000
B(  0-C ,  4-C ) :   1.3361 B(  0-C ,  5-C ) :   1.1893 B(  0-C , 48-N ) :   1.2011
B(  1-C ,  2-C ) :   1.3268 B(  1-C , 10-H ) :   0.9499 B(  1-C , 48-N ) :   1.4414
B(  2-C ,  3-C ) :   1.4589 B(  2-C , 66-C ) :   0.9988 B(  3-C ,  4-C ) :   1.3388
B(  3-C , 11-H ) :   0.9763 B(  4-C , 55-C ) :   1.1347 B(  5-C ,  9-C ) :   1.3511
B(  5-C , 46-N ) :   1.1948 B(  6-C ,  7-C ) :   1.3422 B(  6-C , 12-H ) :   0.9512
B(  6-C , 46-N ) :   1.4352 B(  7-C ,  8-C ) :   1.4910 B(  7-C , 13-H ) :   0.9780
B(  8-C ,  9-C ) :   1.2972 B(  8-C , 14-H ) :   0.9794 B(  9-C , 54-C ) :   1.1374
B( 15-C , 19-C ) :   1.3523 B( 15-C , 20-C ) :   1.1928 B( 15-C , 49-N ) :   1.1901
B( 16-C , 17-C ) :   1.3428 B( 16-C , 25-H ) :   0.9502 B( 16-C , 49-N ) :   1.4338
B( 17-C , 18-C ) :   1.4913 B( 17-C , 26-H ) :   0.9790 B( 18-C , 19-C ) :   1.2918
B( 18-C , 27-H ) :   0.9804 B( 19-C , 57-C ) :   1.1425 B( 20-C , 24-C ) :   1.3530
B( 20-C , 47-N ) :   1.1915 B( 21-C , 22-C ) :   1.3407 B( 21-C , 28-H ) :   0.9503
B( 21-C , 47-N ) :   1.4375 B( 22-C , 23-C ) :   1.4945 B( 22-C , 29-H ) :   0.9781
B( 23-C , 24-C ) :   1.2918 B( 23-C , 30-H ) :   0.9801 B( 24-C , 56-C ) :   1.1429
B( 31-C , 35-C ) :   1.3524 B( 31-C , 36-C ) :   1.1923 B( 31-C , 45-N ) :   1.1913
B( 32-C , 33-C ) :   1.3412 B( 32-C , 41-H ) :   0.9502 B( 32-C , 45-N ) :   1.4360
B( 33-C , 34-C ) :   1.4942 B( 33-C , 64-H ) :   0.9781 B( 34-C , 35-C ) :   1.2925
B( 34-C , 42-H ) :   0.9800 B( 35-C , 52-C ) :   1.1425 B( 36-C , 40-C ) :   1.3521
B( 36-C , 50-N ) :   1.1923 B( 37-C , 38-C ) :   1.3414 B( 37-C , 43-H ) :   0.9501
B( 37-C , 50-N ) :   1.4372 B( 38-C , 39-C ) :   1.4946 B( 38-C , 65-H ) :   0.9781
B( 39-C , 40-C ) :   1.2925 B( 39-C , 44-H ) :   0.9798 B( 40-C , 53-C ) :   1.1429
B( 45-N , 51-Ru) :   0.3935 B( 46-N , 51-Ru) :   0.3896 B( 47-N , 51-Ru) :   0.3906
B( 48-N , 51-Ru) :   0.3900 B( 49-N , 51-Ru) :   0.3913 B( 50-N , 51-Ru) :   0.3909
B( 52-C , 53-C ) :   1.6334 B( 52-C , 59-H ) :   0.9976 B( 53-C , 58-H ) :   0.9972
B( 54-C , 55-C ) :   1.6389 B( 54-C , 61-H ) :   0.9969 B( 55-C , 60-H ) :   0.9970
B( 56-C , 57-C ) :   1.6326 B( 56-C , 63-H ) :   0.9973 B( 57-C , 62-H ) :   0.9973
B( 66-C , 67-C ) :   1.9799 B( 66-C , 70-C ) :   1.0443 B( 67-C , 68-H ) :   0.9579
B( 67-C , 69-H ) :   0.9570 B( 70-C , 71-H ) :   0.9549 B( 70-C , 72-H ) :   0.9547
B( 70-C , 73-H ) :   0.9664

MP2 TOTAL ENERGY:    -1922.973546882 Eh

-----------------------------------------------------------------------------
         ABSORPTION SPECTRUM VIA TRANSITION ELECTRIC DIPOLE MOMENTS
-----------------------------------------------------------------------------
State   Energy    Wavelength  fosc         T2        TX        TY        TZ
        (cm-1)      (nm)                 (au**2)    (au)      (au)      (au)
-----------------------------------------------------------------------------
   1   30488.6    328.0   0.000215777   0.00233   0.04594   0.01414  -0.00441
   2   30563.9    327.2   0.000183553   0.00198   0.02227  -0.03849   0.00007
   3   31571.2    316.7   0.000032019   0.00033   0.00900   0.01555  -0.00331
   4   30369.9    329.3   0.171884524   1.86324   0.91778  -0.54866   0.84846
   5   26511.4    377.2   0.062921823   0.78135   0.52928   0.69872  -0.11401
   6   27269.4    366.7   0.097851384   1.18132  -0.84978   0.60984   0.29544
   7   28503.2    350.8   0.019334658   0.22332  -0.32012  -0.34429   0.04797
   8   30999.4    322.6   0.004192151   0.04452  -0.14616  -0.14947   0.02856
   9   31463.3    317.8   0.008432674   0.08823  -0.23835   0.16762   0.05767
  10   34270.4    291.8   0.003068726   0.02948  -0.01941  -0.16895   0.02360
  11   33698.1    296.8   0.002033104   0.01986   0.09268  -0.01430   0.10521
  12   37492.3    266.7   0.001867811   0.01640  -0.07107  -0.09668   0.04475
  13   25267.9    395.8   0.015222059   0.19833   0.07570   0.19587   0.39272
  14   26757.5    373.7   0.011937619   0.14687  -0.13166  -0.29433   0.20715
  15   29105.9    343.6   0.013678318   0.15471   0.34795  -0.09654   0.15596
  16   27218.9    367.4   0.022612062   0.27349   0.17232  -0.18308  -0.45856
  17   31451.5    317.9   0.395839848   4.14337   0.78908  -1.65099   0.89160
  18   26724.6    374.2   0.051721408   0.63714  -0.22209   0.72018  -0.26297
  19   27120.2    368.7   0.197171265   2.39346  -0.73785   0.14901  -1.35160
  20   29649.6    337.3   0.686785530   7.62566   2.71259   0.37310   0.35822
  21   27941.7    357.9   0.228221972   2.68893  -1.04442   1.09289   0.63538
  22   35627.5    280.7   0.370971535   3.42792  -0.91339  -1.55191   0.43037
  23   28729.5    348.1   0.080004090   0.91677  -0.16893  -0.48951  -0.80537
  24   35446.0    282.1   1.164890894  10.81918   0.54231   0.34462   3.22588
  25   33721.5    296.5   0.189946052   1.85438   1.02558   0.69470   0.56565
  26   30118.3    332.0   0.092478282   1.01084   0.78491  -0.59798  -0.19280
  27   30550.5    327.3   0.046658001   0.50279   0.47447   0.49053  -0.19248
  28   34755.6    287.7   0.043043648   0.40772  -0.22025  -0.48054  -0.35818
  29   28259.6    353.9   0.018060814   0.21040   0.30077   0.31668   0.14019
  30   30915.8    323.5   0.108906967   1.15971   1.06890  -0.12968   0.01848
  31   29189.8    342.6   0.008865702   0.09999   0.17628  -0.18338   0.18785
  32   28532.9    350.5   0.010448029   0.12055  -0.06312  -0.21644   0.26404
  33   28936.9    345.6   0.047242417   0.53747  -0.14232  -0.27359  -0.66511
  34   31144.0    321.1   0.038025055   0.40195   0.12537  -0.12853   0.60804
  35   31568.6    316.8   0.079759793   0.83177   0.61399   0.62362  -0.25667
  36   36501.0    274.0   0.371780099   3.35318   1.28535  -1.22929  -0.43578
  37   37430.8    267.2   0.126714561   1.11448  -0.75454  -0.61620   0.40675
  38   42816.0    233.6   0.356772276   2.74322  -0.48803   1.25041  -0.97032
  39   42491.7    235.3   0.157724684   1.22200   0.67337  -0.58232  -0.65534
  40   43942.1    227.6   0.114869717   0.86060  -0.88594  -0.23687  -0.14004

FINAL SINGLE POINT ENERGY     -1919.469508037835

DIPOLE MOMENT
-------------
                                X             Y             Z
Electronic contribution:     35.81653      -1.76631      19.81028
Nuclear contribution   :    -34.75061       1.93911     -19.30544
                        -----------------------------------------
Total Dipole Moment    :      1.06592       0.17280       0.50484
                        -----------------------------------------
Magnitude (a.u.)       :      1.19202
Magnitude (Debye)      :      3.02987

Rotational constants in cm-1:     0.002931     0.002526     0.002104
Rotational constants in MHz :    87.864409    75.721626    63.072758

                             ****ORCA TERMINATED NORMALLY****
TOTAL RUN TIME: 0 days 2 hours 17 minutes 30 seconds 883 msec
