                         Program Version 5.0.4 -  RELEASE  -
|  1> %maxcore 6000
|  2> %pal
|  3>  nprocs 8
|  4> end
|  5> ! RI-B2PLYP def2-SVP def2/J def2-SVP/C RIJCOSX CPCM TIGHTSCF
|  6>
|  7> %TDDFT
|  8>     DCORR      4
|  9>     NROOTS    40
| 10>     TDA       FALSE
| 11> END
| 12>
| 13> %CPCM
| 14>     SMD		TRUE
| 15>     SMDsolvent	"DMF"
| 16> END
| 17>
| 18> * xyz 2 1
| 19> C                  -1.67762600   -2.06917600    0.26663300
| 20> C                  -2.41976900   -0.35506600   -1.10525600
| 21> C                  -3.64054900   -1.01297700   -1.38146000
| 22> C                  -3.83977500   -2.26012400   -0.78603600
| 23> C                  -2.86017500   -2.81414300    0.05348900
| 24> C                  -0.64603500   -2.57041500    1.10931800
| 25> C                   1.44308500   -2.22864100    2.05449600
| 26> C                   1.37107100   -3.45610900    2.72594600
| 27> C                   0.25377000   -4.25800100    2.57879900
| 28> C                  -0.79899200   -3.82255400    1.74914100
| 29> H                  -2.20348800    0.61917600   -1.54629500
| 30> H                  -4.75670000   -2.82685600   -0.95693900
| 31> H                   2.31664400   -1.58092100    2.16092700
| 32> H                   2.20519900   -3.76067100    3.35881600
| 33> H                   0.17640700   -5.21804400    3.09326600
| 34> C                  -0.67339700    2.70837900   -0.05312000
| 35> C                   0.28364100    2.10199200   -2.07678600
| 36> C                  -0.06962300    3.33263900   -2.64593400
| 37> C                  -0.74150200    4.27374300   -1.88863600
| 38> C                  -1.06092100    3.97552600   -0.54795300
| 39> C                  -0.98229700    2.33684100    1.28747800
| 40> C                  -0.86513200    0.71554500    2.94084800
| 41> C                  -1.52816500    1.55169900    3.84900700
| 42> C                  -1.93001300    2.81414400    3.45518900
| 43> C                  -1.66090300    3.24064700    2.13824800
| 44> H                   0.81430900    1.34564600   -2.66004600
| 45> H                   0.19565500    3.52842800   -3.68531800
| 46> H                  -1.02608800    5.23987000   -2.31036100
| 47> H                  -0.54138600   -0.28590700    3.23440100
| 48> H                  -1.72009400    1.18704000    4.85864000
| 49> H                  -2.45085000    3.48178900    4.14451300
| 50> C                   3.23412000    0.19880600   -0.22862400
| 51> C                   2.68339500    1.39646100    1.67891500
| 52> C                   4.02351900    1.75439600    1.87621500
| 53> C                   4.99043500    1.31827600    0.98984900
| 54> C                   4.60716500    0.51520700   -0.10406100
| 55> C                   2.77992400   -0.61361700   -1.30748600
| 56> C                   0.98382300   -1.63523300   -2.36009000
| 57> C                   1.82485800   -2.15757100   -3.35148700
| 58> C                   3.18147600   -1.89533500   -3.31194000
| 59> C                   3.69765300   -1.10225100   -2.26646500
| 60> H                   1.90544100    1.73094300    2.36951600
| 61> H                   6.04067700    1.58549700    1.12343700
| 62> H                  -0.09133400   -1.82982300   -2.37615000
| 63> H                   3.85546200   -2.29168000   -4.07407900
| 64> N                   2.29071800    0.63576100    0.65528400
| 65> N                   0.46103900   -1.78766600    1.26545600
| 66> N                  -0.59313200    1.09239100    1.69009600
| 67> N                  -1.47103100   -0.85747600   -0.31699100
| 68> N                  -0.01102000    1.78870800   -0.81332900
| 69> N                   1.44226000   -0.87808700   -1.36144800
| 70> Ru                  0.36080900   -0.00017200    0.18929900
| 71> C                   5.51802000    0.00759000   -1.08472300
| 72> C                   5.08178500   -0.76686700   -2.12215900
| 73> C                  -2.00317200   -4.56431000    1.51982500
| 74> C                  -2.99008000   -4.08297000    0.70778800
| 75> C                  -2.03492300    4.52072000    1.61867400
| 76> C                  -1.75019700    4.87194600    0.32958100
| 77> H                   5.78528600   -1.14774300   -2.86536700
| 78> H                   6.57648500    0.25619200   -0.98346900
| 79> H                  -3.90321000   -4.65855900    0.54243700
| 80> H                  -2.11475400   -5.53118100    2.01503300
| 81> H                  -2.04404200    5.84954600   -0.05820200
| 82> H                  -2.55962000    5.21304700    2.28029100
| 83> H                   4.28251500    2.37741300    2.73292400
| 84> H                   1.39050900   -2.76799900   -4.14390000
| 85> C                  -4.63221300   -0.36219000   -2.26657700
| 86> C                  -5.80902100   -0.94423200   -2.56200300
| 87> H                  -6.10834500   -1.92100400   -2.17663300
| 88> H                  -6.52586300   -0.44316400   -3.21675100
| 89> C                  -4.28434800    0.98137800   -2.82737800
| 90> H                  -4.09873700    1.72172300   -2.03314000
| 91> H                  -3.36834600    0.94781100   -3.43802900
| 92> H                  -5.09264700    1.36665600   -3.45976600
| 93> *
| 94>
| 95>                          ****END OF INPUT****

CARTESIAN COORDINATES (ANGSTROEM)
---------------------------------
  C     -1.677626   -2.069176    0.266633
  C     -2.419769   -0.355066   -1.105256
  C     -3.640549   -1.012977   -1.381460
  C     -3.839775   -2.260124   -0.786036
  C     -2.860175   -2.814143    0.053489
  C     -0.646035   -2.570415    1.109318
  C      1.443085   -2.228641    2.054496
  C      1.371071   -3.456109    2.725946
  C      0.253770   -4.258001    2.578799
  C     -0.798992   -3.822554    1.749141
  H     -2.203488    0.619176   -1.546295
  H     -4.756700   -2.826856   -0.956939
  H      2.316644   -1.580921    2.160927
  H      2.205199   -3.760671    3.358816
  H      0.176407   -5.218044    3.093266
  C     -0.673397    2.708379   -0.053120
  C      0.283641    2.101992   -2.076786
  C     -0.069623    3.332639   -2.645934
  C     -0.741502    4.273743   -1.888636
  C     -1.060921    3.975526   -0.547953
  C     -0.982297    2.336841    1.287478
  C     -0.865132    0.715545    2.940848
  C     -1.528165    1.551699    3.849007
  C     -1.930013    2.814144    3.455189
  C     -1.660903    3.240647    2.138248
  H      0.814309    1.345646   -2.660046
  H      0.195655    3.528428   -3.685318
  H     -1.026088    5.239870   -2.310361
  H     -0.541386   -0.285907    3.234401
  H     -1.720094    1.187040    4.858640
  H     -2.450850    3.481789    4.144513
  C      3.234120    0.198806   -0.228624
  C      2.683395    1.396461    1.678915
  C      4.023519    1.754396    1.876215
  C      4.990435    1.318276    0.989849
  C      4.607165    0.515207   -0.104061
  C      2.779924   -0.613617   -1.307486
  C      0.983823   -1.635233   -2.360090
  C      1.824858   -2.157571   -3.351487
  C      3.181476   -1.895335   -3.311940
  C      3.697653   -1.102251   -2.266465
  H      1.905441    1.730943    2.369516
  H      6.040677    1.585497    1.123437
  H     -0.091334   -1.829823   -2.376150
  H      3.855462   -2.291680   -4.074079
  N      2.290718    0.635761    0.655284
  N      0.461039   -1.787666    1.265456
  N     -0.593132    1.092391    1.690096
  N     -1.471031   -0.857476   -0.316991
  N     -0.011020    1.788708   -0.813329
  N      1.442260   -0.878087   -1.361448
  Ru     0.360809   -0.000172    0.189299
  C      5.518020    0.007590   -1.084723
  C      5.081785   -0.766867   -2.122159
  C     -2.003172   -4.564310    1.519825
  C     -2.990080   -4.082970    0.707788
  C     -2.034923    4.520720    1.618674
  C     -1.750197    4.871946    0.329581
  H      5.785286   -1.147743   -2.865367
  H      6.576485    0.256192   -0.983469
  H     -3.903210   -4.658559    0.542437
  H     -2.114754   -5.531181    2.015033
  H     -2.044042    5.849546   -0.058202
  H     -2.559620    5.213047    2.280291
  H      4.282515    2.377413    2.732924
  H      1.390509   -2.767999   -4.143900
  C     -4.632213   -0.362190   -2.266577
  C     -5.809021   -0.944232   -2.562003
  H     -6.108345   -1.921004   -2.176633
  H     -6.525863   -0.443164   -3.216751
  C     -4.284348    0.981378   -2.827378
  H     -4.098737    1.721723   -2.033140
  H     -3.368346    0.947811   -3.438029
  H     -5.092647    1.366656   -3.459766

 Total Charge           Charge          ....    2
 Multiplicity           Mult            ....    1
 Number of Electrons    NEL             ....  318
 Basis Dimension        Dim             ....  801

ORBITAL ENERGIES
----------------

  NO   OCC          E(Eh)            E(eV)
   0   2.0000     -14.904479      -405.5715
   1   2.0000     -14.904199      -405.5639
   2   2.0000     -14.904192      -405.5637
   3   2.0000     -14.904112      -405.5615
   4   2.0000     -14.904060      -405.5601
   5   2.0000     -14.903884      -405.5553
   6   2.0000     -10.694988      -291.0254
   7   2.0000     -10.694682      -291.0171
   8   2.0000     -10.694363      -291.0084
   9   2.0000     -10.694264      -291.0057
  10   2.0000     -10.694067      -291.0004
  11   2.0000     -10.693528      -290.9857
  12   2.0000     -10.693254      -290.9782
  13   2.0000     -10.693166      -290.9758
  14   2.0000     -10.692924      -290.9692
  15   2.0000     -10.692891      -290.9684
  16   2.0000     -10.692778      -290.9653
  17   2.0000     -10.691389      -290.9275
  18   2.0000     -10.666473      -290.2495
  19   2.0000     -10.666269      -290.2439
  20   2.0000     -10.666195      -290.2419
  21   2.0000     -10.666107      -290.2395
  22   2.0000     -10.665964      -290.2356
  23   2.0000     -10.665776      -290.2305
  24   2.0000     -10.665558      -290.2246
  25   2.0000     -10.665483      -290.2225
  26   2.0000     -10.665460      -290.2219
  27   2.0000     -10.665405      -290.2204
  28   2.0000     -10.665265      -290.2166
  29   2.0000     -10.664401      -290.1931
  30   2.0000     -10.662828      -290.1503
  31   2.0000     -10.653420      -289.8943
  32   2.0000     -10.653166      -289.8874
  33   2.0000     -10.653098      -289.8855
  34   2.0000     -10.653003      -289.8829
  35   2.0000     -10.652883      -289.8797
  36   2.0000     -10.652211      -289.8614
  37   2.0000     -10.652112      -289.8587
  38   2.0000     -10.651966      -289.8547
  39   2.0000     -10.651322      -289.8372
  40   2.0000     -10.651226      -289.8346
  41   2.0000     -10.651058      -289.8300
  42   2.0000     -10.648338      -289.7560
  43   2.0000     -10.627370      -289.1854
  44   2.0000     -10.621332      -289.0212
  45   2.0000      -3.222801       -87.6969
  46   2.0000      -2.001713       -54.4694
  47   2.0000      -2.001399       -54.4608
  48   2.0000      -1.994071       -54.2614
  49   2.0000      -1.127738       -30.6873
  50   2.0000      -1.120691       -30.4956
  51   2.0000      -1.120606       -30.4932
  52   2.0000      -1.092947       -29.7406
  53   2.0000      -1.092655       -29.7327
  54   2.0000      -1.092393       -29.7255
  55   2.0000      -0.989397       -26.9229
  56   2.0000      -0.987301       -26.8658
  57   2.0000      -0.987032       -26.8585
  58   2.0000      -0.963333       -26.2136
  59   2.0000      -0.942138       -25.6369
  60   2.0000      -0.941870       -25.6296
  61   2.0000      -0.940365       -25.5886
  62   2.0000      -0.937657       -25.5149
  63   2.0000      -0.937398       -25.5079
  64   2.0000      -0.908753       -24.7284
  65   2.0000      -0.875538       -23.8246
  66   2.0000      -0.875243       -23.8166
  67   2.0000      -0.872390       -23.7389
  68   2.0000      -0.871570       -23.7166
  69   2.0000      -0.871267       -23.7084
  70   2.0000      -0.861261       -23.4361
  71   2.0000      -0.794121       -21.6091
  72   2.0000      -0.775901       -21.1134
  73   2.0000      -0.774654       -21.0794
  74   2.0000      -0.774477       -21.0746
  75   2.0000      -0.761050       -20.7092
  76   2.0000      -0.760467       -20.6934
  77   2.0000      -0.757806       -20.6210
  78   2.0000      -0.752193       -20.4682
  79   2.0000      -0.751977       -20.4623
  80   2.0000      -0.750246       -20.4152
  81   2.0000      -0.717063       -19.5123
  82   2.0000      -0.715635       -19.4734
  83   2.0000      -0.715181       -19.4611
  84   2.0000      -0.670816       -18.2538
  85   2.0000      -0.658197       -17.9105
  86   2.0000      -0.656752       -17.8711
  87   2.0000      -0.652729       -17.7616
  88   2.0000      -0.641474       -17.4554
  89   2.0000      -0.640531       -17.4297
  90   2.0000      -0.622282       -16.9332
  91   2.0000      -0.621368       -16.9083
  92   2.0000      -0.619770       -16.8648
  93   2.0000      -0.619500       -16.8574
  94   2.0000      -0.583396       -15.8750
  95   2.0000      -0.581506       -15.8236
  96   2.0000      -0.580563       -15.7979
  97   2.0000      -0.580198       -15.7880
  98   2.0000      -0.579173       -15.7601
  99   2.0000      -0.574231       -15.6256
 100   2.0000      -0.568831       -15.4787
 101   2.0000      -0.568459       -15.4686
 102   2.0000      -0.566532       -15.4161
 103   2.0000      -0.539515       -14.6810
 104   2.0000      -0.538845       -14.6627
 105   2.0000      -0.536045       -14.5865
 106   2.0000      -0.533156       -14.5079
 107   2.0000      -0.524228       -14.2650
 108   2.0000      -0.524044       -14.2600
 109   2.0000      -0.523726       -14.2513
 110   2.0000      -0.518573       -14.1111
 111   2.0000      -0.518389       -14.1061
 112   2.0000      -0.514462       -13.9992
 113   2.0000      -0.513625       -13.9764
 114   2.0000      -0.512821       -13.9546
 115   2.0000      -0.501750       -13.6533
 116   2.0000      -0.499790       -13.6000
 117   2.0000      -0.498219       -13.5572
 118   2.0000      -0.496255       -13.5038
 119   2.0000      -0.495019       -13.4702
 120   2.0000      -0.492050       -13.3894
 121   2.0000      -0.491427       -13.3724
 122   2.0000      -0.488528       -13.2935
 123   2.0000      -0.484212       -13.1761
 124   2.0000      -0.477424       -12.9914
 125   2.0000      -0.471686       -12.8352
 126   2.0000      -0.468701       -12.7540
 127   2.0000      -0.458359       -12.4726
 128   2.0000      -0.454769       -12.3749
 129   2.0000      -0.448680       -12.2092
 130   2.0000      -0.445931       -12.1344
 131   2.0000      -0.444383       -12.0923
 132   2.0000      -0.439448       -11.9580
 133   2.0000      -0.423316       -11.5190
 134   2.0000      -0.422828       -11.5057
 135   2.0000      -0.422610       -11.4998
 136   2.0000      -0.421012       -11.4563
 137   2.0000      -0.417044       -11.3484
 138   2.0000      -0.414182       -11.2705
 139   2.0000      -0.412535       -11.2256
 140   2.0000      -0.390725       -10.6322
 141   2.0000      -0.389582       -10.6011
 142   2.0000      -0.386081       -10.5058
 143   2.0000      -0.380613       -10.3570
 144   2.0000      -0.377634       -10.2759
 145   2.0000      -0.371728       -10.1152
 146   2.0000      -0.369229       -10.0472
 147   2.0000      -0.365004        -9.9323
 148   2.0000      -0.363291        -9.8856
 149   2.0000      -0.324906        -8.8411
 150   2.0000      -0.303470        -8.2578
 151   2.0000      -0.302103        -8.2206
 152   2.0000      -0.295361        -8.0372
 153   2.0000      -0.292885        -7.9698
 154   2.0000      -0.288304        -7.8451
 155   2.0000      -0.276862        -7.5338
 156   2.0000      -0.263238        -7.1631
 157   2.0000      -0.260456        -7.0874
 158   2.0000      -0.259414        -7.0590
 159   0.0000      -0.041326        -1.1245
 160   0.0000      -0.034768        -0.9461
 161   0.0000      -0.032882        -0.8948
 162   0.0000      -0.029447        -0.8013
 163   0.0000      -0.025643        -0.6978

MULLIKEN ATOMIC CHARGES
-----------------------
   0 C :    0.176285
   1 C :    0.141427
   2 C :    0.013846
   3 C :    0.034387
   4 C :   -0.040456
   5 C :    0.183252
   6 C :    0.164398
   7 C :   -0.038473
   8 C :    0.071671
   9 C :   -0.054734
  10 H :    0.093928
  11 H :    0.045982
  12 H :    0.100038
  13 H :    0.057832
  14 H :    0.054888
  15 C :    0.179586
  16 C :    0.165808
  17 C :   -0.034939
  18 C :    0.069026
  19 C :   -0.048007
  20 C :    0.181547
  21 C :    0.164498
  22 C :   -0.037092
  23 C :    0.070668
  24 C :   -0.050986
  25 H :    0.100908
  26 H :    0.058039
  27 H :    0.055726
  28 H :    0.100762
  29 H :    0.058336
  30 H :    0.055674
  31 C :    0.182004
  32 C :    0.164401
  33 C :   -0.036960
  34 C :    0.071250
  35 C :   -0.050232
  36 C :    0.180262
  37 C :    0.163964
  38 C :   -0.037571
  39 C :    0.071797
  40 C :   -0.051984
  41 H :    0.100764
  42 H :    0.055237
  43 H :    0.101592
  44 H :    0.055288
  45 N :   -0.354134
  46 N :   -0.353096
  47 N :   -0.354442
  48 N :   -0.348055
  49 N :   -0.358751
  50 N :   -0.354932
  51 Ru:    0.598905
  52 C :    0.004799
  53 C :    0.004754
  54 C :    0.007051
  55 C :    0.001723
  56 C :    0.004252
  57 C :    0.004798
  58 H :    0.040802
  59 H :    0.040897
  60 H :    0.041383
  61 H :    0.040192
  62 H :    0.041356
  63 H :    0.041546
  64 H :    0.058026
  65 H :    0.058056
  66 C :   -0.165170
  67 C :   -0.085336
  68 H :    0.058104
  69 H :    0.053987
  70 C :    0.074269
  71 H :    0.050691
  72 H :    0.050559
  73 H :    0.034131
Sum of atomic charges:    2.0000000

LOEWDIN ATOMIC CHARGES
----------------------
   0 C :    0.051253
   1 C :    0.101704
   2 C :   -0.032609
   3 C :    0.058149
   4 C :   -0.024365
   5 C :    0.053563
   6 C :    0.101104
   7 C :   -0.028197
   8 C :    0.050170
   9 C :   -0.025229
  10 H :    0.051373
  11 H :    0.054070
  12 H :    0.055785
  13 H :    0.054925
  14 H :    0.056248
  15 C :    0.053209
  16 C :    0.101817
  17 C :   -0.027180
  18 C :    0.050777
  19 C :   -0.024753
  20 C :    0.053497
  21 C :    0.101690
  22 C :   -0.027451
  23 C :    0.050601
  24 C :   -0.024836
  25 H :    0.055944
  26 H :    0.055233
  27 H :    0.056487
  28 H :    0.055877
  29 H :    0.055185
  30 H :    0.056390
  31 C :    0.053501
  32 C :    0.101489
  33 C :   -0.027554
  34 C :    0.050260
  35 C :   -0.025044
  36 C :    0.053494
  37 C :    0.101611
  38 C :   -0.027497
  39 C :    0.050447
  40 C :   -0.025131
  41 H :    0.055916
  42 H :    0.056245
  43 H :    0.056032
  44 H :    0.056318
  45 N :    0.063213
  46 N :    0.061611
  47 N :    0.062481
  48 N :    0.067027
  49 N :    0.062583
  50 N :    0.062713
  51 Ru:   -0.595264
  52 C :   -0.000922
  53 C :   -0.001106
  54 C :   -0.001883
  55 C :   -0.000565
  56 C :   -0.000764
  57 C :   -0.001090
  58 H :    0.050738
  59 H :    0.050704
  60 H :    0.050429
  61 H :    0.050582
  62 H :    0.050854
  63 H :    0.050859
  64 H :    0.055091
  65 H :    0.055138
  66 C :   -0.032198
  67 C :   -0.045051
  68 H :    0.031044
  69 H :    0.033445
  70 C :   -0.039975
  71 H :    0.037367
  72 H :    0.037282
  73 H :    0.035140

  Mayer bond orders larger than 0.100000
B(  0-C ,  4-C ) :   1.3046 B(  0-C ,  5-C ) :   1.1838 B(  0-C , 48-N ) :   1.2182
B(  1-C ,  2-C ) :   1.3113 B(  1-C , 10-H ) :   0.9484 B(  1-C , 48-N ) :   1.4347
B(  2-C ,  3-C ) :   1.4178 B(  2-C , 66-C ) :   1.0107 B(  3-C ,  4-C ) :   1.3190
B(  3-C , 11-H ) :   0.9908 B(  4-C , 55-C ) :   1.1338 B(  5-C ,  9-C ) :   1.3184
B(  5-C , 46-N ) :   1.2115 B(  6-C ,  7-C ) :   1.3313 B(  6-C , 12-H ) :   0.9531
B(  6-C , 46-N ) :   1.4348 B(  7-C ,  8-C ) :   1.4595 B(  7-C , 13-H ) :   0.9841
B(  8-C ,  9-C ) :   1.2945 B(  8-C , 14-H ) :   0.9883 B(  9-C , 54-C ) :   1.1388
B( 15-C , 19-C ) :   1.3199 B( 15-C , 20-C ) :   1.1866 B( 15-C , 49-N ) :   1.2071
B( 16-C , 17-C ) :   1.3315 B( 16-C , 25-H ) :   0.9522 B( 16-C , 49-N ) :   1.4336
B( 17-C , 18-C ) :   1.4599 B( 17-C , 26-H ) :   0.9853 B( 18-C , 19-C ) :   1.2889
B( 18-C , 27-H ) :   0.9894 B( 19-C , 57-C ) :   1.1436 B( 20-C , 24-C ) :   1.3206
B( 20-C , 47-N ) :   1.2094 B( 21-C , 22-C ) :   1.3297 B( 21-C , 28-H ) :   0.9524
B( 21-C , 47-N ) :   1.4369 B( 22-C , 23-C ) :   1.4633 B( 22-C , 29-H ) :   0.9843
B( 23-C , 24-C ) :   1.2893 B( 23-C , 30-H ) :   0.9890 B( 24-C , 56-C ) :   1.1440
B( 31-C , 35-C ) :   1.3200 B( 31-C , 36-C ) :   1.1862 B( 31-C , 45-N ) :   1.2090
B( 32-C , 33-C ) :   1.3301 B( 32-C , 41-H ) :   0.9524 B( 32-C , 45-N ) :   1.4358
B( 33-C , 34-C ) :   1.4631 B( 33-C , 64-H ) :   0.9843 B( 34-C , 35-C ) :   1.2898
B( 34-C , 42-H ) :   0.9889 B( 35-C , 52-C ) :   1.1437 B( 36-C , 40-C ) :   1.3198
B( 36-C , 50-N ) :   1.2098 B( 37-C , 38-C ) :   1.3302 B( 37-C , 43-H ) :   0.9521
B( 37-C , 50-N ) :   1.4366 B( 38-C , 39-C ) :   1.4634 B( 38-C , 65-H ) :   0.9842
B( 39-C , 40-C ) :   1.2898 B( 39-C , 44-H ) :   0.9887 B( 40-C , 53-C ) :   1.1440
B( 45-N , 51-Ru) :   0.4391 B( 46-N , 51-Ru) :   0.4354 B( 47-N , 51-Ru) :   0.4359
B( 48-N , 51-Ru) :   0.4360 B( 49-N , 51-Ru) :   0.4375 B( 50-N , 51-Ru) :   0.4370
B( 52-C , 53-C ) :   1.5774 B( 52-C , 59-H ) :   1.0071 B( 53-C , 58-H ) :   1.0068
B( 54-C , 55-C ) :   1.5832 B( 54-C , 61-H ) :   1.0064 B( 55-C , 60-H ) :   1.0067
B( 56-C , 57-C ) :   1.5764 B( 56-C , 63-H ) :   1.0071 B( 57-C , 62-H ) :   1.0070
B( 66-C , 67-C ) :   1.9666 B( 66-C , 70-C ) :   1.0730 B( 67-C , 68-H ) :   0.9525
B( 67-C , 69-H ) :   0.9509 B( 70-C , 71-H ) :   0.9476 B( 70-C , 72-H ) :   0.9473
B( 70-C , 73-H ) :   0.9587

MP2 TOTAL ENERGY:    -1923.029526455 Eh

-----------------------------------------------------------------------------
         ABSORPTION SPECTRUM VIA TRANSITION ELECTRIC DIPOLE MOMENTS
-----------------------------------------------------------------------------
State   Energy    Wavelength  fosc         T2        TX        TY        TZ
        (cm-1)      (nm)                 (au**2)    (au)      (au)      (au)
-----------------------------------------------------------------------------
   1   25017.1    399.7   0.012384161   0.16297  -0.34281   0.19231  -0.09204
   2   27386.0    365.2   0.012645898   0.15202  -0.17623  -0.33648   0.08801
   3   22222.2    450.0   0.024536950   0.36350   0.02659   0.29719  -0.52390
   4   20769.8    481.5   0.108718504   1.72324  -0.68894  -1.11105   0.11904
   5   27303.8    366.2   0.001061703   0.01280   0.05449   0.07068  -0.06955
   6   26186.0    381.9   0.005295894   0.06658  -0.13360   0.18210   0.12478
   7   21337.3    468.7   0.034454904   0.53160  -0.59017   0.38402   0.18930
   8   21538.1    464.3   0.092756698   1.41779  -0.96983   0.63269   0.27735
   9   17390.8    575.0   0.002313507   0.04380  -0.15850   0.11537   0.07323
  10   18882.9    529.6   0.020899393   0.36437  -0.51863   0.30292   0.06028
  11   19541.8    511.7   0.001182813   0.01993  -0.09324  -0.09752   0.04149
  12   22141.3    451.6   0.012495105   0.18579   0.31400   0.29356  -0.03188
  13   26392.8    378.9   0.052127769   0.65022  -0.39227   0.43166  -0.55679
  14   23505.7    425.4   0.080313857   1.12485   0.70584   0.78151  -0.12604
  15   24074.5    415.4   0.096698611   1.32233  -0.59257   0.81048   0.56063
  16   25402.6    393.7   0.063661367   0.82504  -0.75058  -0.48199   0.17134
  17   23253.4    430.0   0.116671213   1.65178   1.12605  -0.57571   0.22884
  18   21559.5    463.8   0.027359422   0.41778  -0.33274   0.18568  -0.52210
  19   23755.9    420.9   0.101640699   1.40855   0.74734  -0.13330   0.91229
  20   21510.2    464.9   0.001604160   0.02455  -0.06727  -0.08572   0.11260
  21   23481.2    425.9   0.007657403   0.10736   0.12052   0.26849  -0.14404
  22   24151.6    414.1   0.289371341   3.94443  -1.49661   0.71847  -1.09013
  23   28363.9    352.6   0.015443167   0.17924   0.42062   0.01305  -0.04639
  24   27402.2    364.9   0.025614932   0.30774  -0.42097  -0.30051  -0.20055
  25   26147.2    382.5   0.002952180   0.03717  -0.08240   0.09278  -0.14755
  26   33777.6    296.1   0.008092460   0.07887   0.26022   0.09214   0.05165
  27   32569.7    307.0   0.000876796   0.00886   0.01016  -0.01545  -0.09231
  28   35456.4    282.0   0.002302065   0.02137   0.01415   0.11005  -0.09520
  29   31386.6    318.6   0.006762852   0.07094   0.02127   0.22132  -0.14662
  30   29497.7    339.0   0.021875431   0.24414   0.25735   0.02207   0.42122
  31   32806.0    304.8   0.174564370   1.75177   1.08913  -0.57535   0.48430
  32   37105.9    269.5   0.299063827   2.65336  -0.71121  -1.37948   0.49456
  33   34442.0    290.3   0.266605247   2.54833   1.26896   0.80806  -0.53395
  34   37082.2    269.7   1.253422285  11.12776  -0.95705  -0.74055  -3.10860
  35   35939.6    278.2   0.116782805   1.06975   0.72253  -0.48931  -0.55523
  36   35703.1    280.1   0.049897197   0.46009  -0.54079  -0.32180  -0.25314
  37   37020.0    270.1   0.276839821   2.46189  -1.31817   0.79545   0.30261
  38   37217.5    268.7   0.089781192   0.79417  -0.07633  -0.72795   0.50837
  39   36433.1    274.5   0.019065037   0.17227  -0.35395   0.09991  -0.19239
  40   35689.9    280.2   0.034135972   0.31488   0.36554  -0.35003   0.24236

FINAL SINGLE POINT ENERGY     -1920.757830967746

DIPOLE MOMENT
-------------
                                X             Y             Z
Electronic contribution:     35.79567      -1.75217      19.79048
Nuclear contribution   :    -34.75061       1.93911     -19.30544
                        -----------------------------------------
Total Dipole Moment    :      1.04506       0.18694       0.48504
                        -----------------------------------------
Magnitude (a.u.)       :      1.16720
Magnitude (Debye)      :      2.96679

Rotational constants in cm-1:     0.002931     0.002526     0.002104
Rotational constants in MHz :    87.864409    75.721626    63.072758

                             ****ORCA TERMINATED NORMALLY****
TOTAL RUN TIME: 0 days 2 hours 11 minutes 36 seconds 114 msec
