                         Program Version 5.0.4 -  RELEASE  -
|  1> %maxcore 6000
|  2> %pal
|  3>  nprocs 8
|  4> end
|  5> ! RI-B2GP-PLYP def2-SVP def2/J def2-SVP/C RIJCOSX CPCM TIGHTSCF
|  6>
|  7> %TDDFT
|  8>     DCORR      4
|  9>     NROOTS    40
| 10>     TDA       FALSE
| 11> END
| 12>
| 13> %CPCM
| 14>     SMD		TRUE
| 15>     SMDsolvent	"DMF"
| 16> END
| 17>
| 18> * xyz 2 1
| 19> C                  -1.67762600   -2.06917600    0.26663300
| 20> C                  -2.41976900   -0.35506600   -1.10525600
| 21> C                  -3.64054900   -1.01297700   -1.38146000
| 22> C                  -3.83977500   -2.26012400   -0.78603600
| 23> C                  -2.86017500   -2.81414300    0.05348900
| 24> C                  -0.64603500   -2.57041500    1.10931800
| 25> C                   1.44308500   -2.22864100    2.05449600
| 26> C                   1.37107100   -3.45610900    2.72594600
| 27> C                   0.25377000   -4.25800100    2.57879900
| 28> C                  -0.79899200   -3.82255400    1.74914100
| 29> H                  -2.20348800    0.61917600   -1.54629500
| 30> H                  -4.75670000   -2.82685600   -0.95693900
| 31> H                   2.31664400   -1.58092100    2.16092700
| 32> H                   2.20519900   -3.76067100    3.35881600
| 33> H                   0.17640700   -5.21804400    3.09326600
| 34> C                  -0.67339700    2.70837900   -0.05312000
| 35> C                   0.28364100    2.10199200   -2.07678600
| 36> C                  -0.06962300    3.33263900   -2.64593400
| 37> C                  -0.74150200    4.27374300   -1.88863600
| 38> C                  -1.06092100    3.97552600   -0.54795300
| 39> C                  -0.98229700    2.33684100    1.28747800
| 40> C                  -0.86513200    0.71554500    2.94084800
| 41> C                  -1.52816500    1.55169900    3.84900700
| 42> C                  -1.93001300    2.81414400    3.45518900
| 43> C                  -1.66090300    3.24064700    2.13824800
| 44> H                   0.81430900    1.34564600   -2.66004600
| 45> H                   0.19565500    3.52842800   -3.68531800
| 46> H                  -1.02608800    5.23987000   -2.31036100
| 47> H                  -0.54138600   -0.28590700    3.23440100
| 48> H                  -1.72009400    1.18704000    4.85864000
| 49> H                  -2.45085000    3.48178900    4.14451300
| 50> C                   3.23412000    0.19880600   -0.22862400
| 51> C                   2.68339500    1.39646100    1.67891500
| 52> C                   4.02351900    1.75439600    1.87621500
| 53> C                   4.99043500    1.31827600    0.98984900
| 54> C                   4.60716500    0.51520700   -0.10406100
| 55> C                   2.77992400   -0.61361700   -1.30748600
| 56> C                   0.98382300   -1.63523300   -2.36009000
| 57> C                   1.82485800   -2.15757100   -3.35148700
| 58> C                   3.18147600   -1.89533500   -3.31194000
| 59> C                   3.69765300   -1.10225100   -2.26646500
| 60> H                   1.90544100    1.73094300    2.36951600
| 61> H                   6.04067700    1.58549700    1.12343700
| 62> H                  -0.09133400   -1.82982300   -2.37615000
| 63> H                   3.85546200   -2.29168000   -4.07407900
| 64> N                   2.29071800    0.63576100    0.65528400
| 65> N                   0.46103900   -1.78766600    1.26545600
| 66> N                  -0.59313200    1.09239100    1.69009600
| 67> N                  -1.47103100   -0.85747600   -0.31699100
| 68> N                  -0.01102000    1.78870800   -0.81332900
| 69> N                   1.44226000   -0.87808700   -1.36144800
| 70> Ru                  0.36080900   -0.00017200    0.18929900
| 71> C                   5.51802000    0.00759000   -1.08472300
| 72> C                   5.08178500   -0.76686700   -2.12215900
| 73> C                  -2.00317200   -4.56431000    1.51982500
| 74> C                  -2.99008000   -4.08297000    0.70778800
| 75> C                  -2.03492300    4.52072000    1.61867400
| 76> C                  -1.75019700    4.87194600    0.32958100
| 77> H                   5.78528600   -1.14774300   -2.86536700
| 78> H                   6.57648500    0.25619200   -0.98346900
| 79> H                  -3.90321000   -4.65855900    0.54243700
| 80> H                  -2.11475400   -5.53118100    2.01503300
| 81> H                  -2.04404200    5.84954600   -0.05820200
| 82> H                  -2.55962000    5.21304700    2.28029100
| 83> H                   4.28251500    2.37741300    2.73292400
| 84> H                   1.39050900   -2.76799900   -4.14390000
| 85> C                  -4.63221300   -0.36219000   -2.26657700
| 86> C                  -5.80902100   -0.94423200   -2.56200300
| 87> H                  -6.10834500   -1.92100400   -2.17663300
| 88> H                  -6.52586300   -0.44316400   -3.21675100
| 89> C                  -4.28434800    0.98137800   -2.82737800
| 90> H                  -4.09873700    1.72172300   -2.03314000
| 91> H                  -3.36834600    0.94781100   -3.43802900
| 92> H                  -5.09264700    1.36665600   -3.45976600
| 93> *
| 94>
| 95>                          ****END OF INPUT****

CARTESIAN COORDINATES (ANGSTROEM)
---------------------------------
  C     -1.677626   -2.069176    0.266633
  C     -2.419769   -0.355066   -1.105256
  C     -3.640549   -1.012977   -1.381460
  C     -3.839775   -2.260124   -0.786036
  C     -2.860175   -2.814143    0.053489
  C     -0.646035   -2.570415    1.109318
  C      1.443085   -2.228641    2.054496
  C      1.371071   -3.456109    2.725946
  C      0.253770   -4.258001    2.578799
  C     -0.798992   -3.822554    1.749141
  H     -2.203488    0.619176   -1.546295
  H     -4.756700   -2.826856   -0.956939
  H      2.316644   -1.580921    2.160927
  H      2.205199   -3.760671    3.358816
  H      0.176407   -5.218044    3.093266
  C     -0.673397    2.708379   -0.053120
  C      0.283641    2.101992   -2.076786
  C     -0.069623    3.332639   -2.645934
  C     -0.741502    4.273743   -1.888636
  C     -1.060921    3.975526   -0.547953
  C     -0.982297    2.336841    1.287478
  C     -0.865132    0.715545    2.940848
  C     -1.528165    1.551699    3.849007
  C     -1.930013    2.814144    3.455189
  C     -1.660903    3.240647    2.138248
  H      0.814309    1.345646   -2.660046
  H      0.195655    3.528428   -3.685318
  H     -1.026088    5.239870   -2.310361
  H     -0.541386   -0.285907    3.234401
  H     -1.720094    1.187040    4.858640
  H     -2.450850    3.481789    4.144513
  C      3.234120    0.198806   -0.228624
  C      2.683395    1.396461    1.678915
  C      4.023519    1.754396    1.876215
  C      4.990435    1.318276    0.989849
  C      4.607165    0.515207   -0.104061
  C      2.779924   -0.613617   -1.307486
  C      0.983823   -1.635233   -2.360090
  C      1.824858   -2.157571   -3.351487
  C      3.181476   -1.895335   -3.311940
  C      3.697653   -1.102251   -2.266465
  H      1.905441    1.730943    2.369516
  H      6.040677    1.585497    1.123437
  H     -0.091334   -1.829823   -2.376150
  H      3.855462   -2.291680   -4.074079
  N      2.290718    0.635761    0.655284
  N      0.461039   -1.787666    1.265456
  N     -0.593132    1.092391    1.690096
  N     -1.471031   -0.857476   -0.316991
  N     -0.011020    1.788708   -0.813329
  N      1.442260   -0.878087   -1.361448
  Ru     0.360809   -0.000172    0.189299
  C      5.518020    0.007590   -1.084723
  C      5.081785   -0.766867   -2.122159
  C     -2.003172   -4.564310    1.519825
  C     -2.990080   -4.082970    0.707788
  C     -2.034923    4.520720    1.618674
  C     -1.750197    4.871946    0.329581
  H      5.785286   -1.147743   -2.865367
  H      6.576485    0.256192   -0.983469
  H     -3.903210   -4.658559    0.542437
  H     -2.114754   -5.531181    2.015033
  H     -2.044042    5.849546   -0.058202
  H     -2.559620    5.213047    2.280291
  H      4.282515    2.377413    2.732924
  H      1.390509   -2.767999   -4.143900
  C     -4.632213   -0.362190   -2.266577
  C     -5.809021   -0.944232   -2.562003
  H     -6.108345   -1.921004   -2.176633
  H     -6.525863   -0.443164   -3.216751
  C     -4.284348    0.981378   -2.827378
  H     -4.098737    1.721723   -2.033140
  H     -3.368346    0.947811   -3.438029
  H     -5.092647    1.366656   -3.459766

 Total Charge           Charge          ....    2
 Multiplicity           Mult            ....    1
 Number of Electrons    NEL             ....  318
 Basis Dimension        Dim             ....  801

ORBITAL ENERGIES
----------------

  NO   OCC          E(Eh)            E(eV)
   0   2.0000     -15.090883      -410.6438
   1   2.0000     -15.090626      -410.6368
   2   2.0000     -15.090616      -410.6365
   3   2.0000     -15.090602      -410.6361
   4   2.0000     -15.090547      -410.6347
   5   2.0000     -15.090389      -410.6303
   6   2.0000     -10.855106      -295.3824
   7   2.0000     -10.854814      -295.3745
   8   2.0000     -10.854446      -295.3645
   9   2.0000     -10.854386      -295.3628
  10   2.0000     -10.854221      -295.3584
  11   2.0000     -10.854103      -295.3552
  12   2.0000     -10.853931      -295.3505
  13   2.0000     -10.853857      -295.3485
  14   2.0000     -10.853616      -295.3419
  15   2.0000     -10.853597      -295.3414
  16   2.0000     -10.852994      -295.3250
  17   2.0000     -10.852288      -295.3058
  18   2.0000     -10.826491      -294.6038
  19   2.0000     -10.826234      -294.5968
  20   2.0000     -10.826154      -294.5946
  21   2.0000     -10.826092      -294.5930
  22   2.0000     -10.826023      -294.5911
  23   2.0000     -10.825327      -294.5721
  24   2.0000     -10.825171      -294.5679
  25   2.0000     -10.824989      -294.5629
  26   2.0000     -10.824907      -294.5607
  27   2.0000     -10.824846      -294.5590
  28   2.0000     -10.824734      -294.5560
  29   2.0000     -10.824367      -294.5460
  30   2.0000     -10.821895      -294.4787
  31   2.0000     -10.811974      -294.2088
  32   2.0000     -10.811709      -294.2016
  33   2.0000     -10.811651      -294.2000
  34   2.0000     -10.811552      -294.1973
  35   2.0000     -10.811485      -294.1955
  36   2.0000     -10.811231      -294.1885
  37   2.0000     -10.811139      -294.1860
  38   2.0000     -10.811066      -294.1841
  39   2.0000     -10.810219      -294.1610
  40   2.0000     -10.810130      -294.1586
  41   2.0000     -10.810036      -294.1560
  42   2.0000     -10.807332      -294.0824
  43   2.0000     -10.786109      -293.5049
  44   2.0000     -10.779626      -293.3285
  45   2.0000      -3.301775       -89.8459
  46   2.0000      -2.058030       -56.0019
  47   2.0000      -2.057714       -55.9933
  48   2.0000      -2.050993       -55.8104
  49   2.0000      -1.177884       -32.0519
  50   2.0000      -1.170651       -31.8550
  51   2.0000      -1.170488       -31.8506
  52   2.0000      -1.141922       -31.0733
  53   2.0000      -1.141512       -31.0621
  54   2.0000      -1.141253       -31.0551
  55   2.0000      -1.035734       -28.1838
  56   2.0000      -1.033516       -28.1234
  57   2.0000      -1.033311       -28.1178
  58   2.0000      -1.009163       -27.4607
  59   2.0000      -0.987139       -26.8614
  60   2.0000      -0.986874       -26.8542
  61   2.0000      -0.985309       -26.8116
  62   2.0000      -0.982209       -26.7273
  63   2.0000      -0.981950       -26.7202
  64   2.0000      -0.952533       -25.9197
  65   2.0000      -0.918007       -24.9802
  66   2.0000      -0.917711       -24.9722
  67   2.0000      -0.914617       -24.8880
  68   2.0000      -0.913761       -24.8647
  69   2.0000      -0.913403       -24.8550
  70   2.0000      -0.903465       -24.5845
  71   2.0000      -0.833540       -22.6818
  72   2.0000      -0.814182       -22.1550
  73   2.0000      -0.812920       -22.1207
  74   2.0000      -0.812580       -22.1114
  75   2.0000      -0.798088       -21.7171
  76   2.0000      -0.797543       -21.7022
  77   2.0000      -0.794900       -21.6303
  78   2.0000      -0.788740       -21.4627
  79   2.0000      -0.788498       -21.4561
  80   2.0000      -0.786925       -21.4133
  81   2.0000      -0.753056       -20.4917
  82   2.0000      -0.751352       -20.4453
  83   2.0000      -0.750939       -20.4341
  84   2.0000      -0.704659       -19.1747
  85   2.0000      -0.691318       -18.8117
  86   2.0000      -0.689857       -18.7720
  87   2.0000      -0.685195       -18.6451
  88   2.0000      -0.673630       -18.3304
  89   2.0000      -0.672589       -18.3021
  90   2.0000      -0.654497       -17.8098
  91   2.0000      -0.652830       -17.7644
  92   2.0000      -0.650941       -17.7130
  93   2.0000      -0.650679       -17.7059
  94   2.0000      -0.613696       -16.6995
  95   2.0000      -0.611663       -16.6442
  96   2.0000      -0.610798       -16.6207
  97   2.0000      -0.610514       -16.6129
  98   2.0000      -0.609480       -16.5848
  99   2.0000      -0.604199       -16.4411
 100   2.0000      -0.598396       -16.2832
 101   2.0000      -0.598011       -16.2727
 102   2.0000      -0.596267       -16.2253
 103   2.0000      -0.567278       -15.4364
 104   2.0000      -0.565475       -15.3874
 105   2.0000      -0.563469       -15.3328
 106   2.0000      -0.561886       -15.2897
 107   2.0000      -0.552154       -15.0249
 108   2.0000      -0.551698       -15.0125
 109   2.0000      -0.550015       -14.9667
 110   2.0000      -0.546406       -14.8685
 111   2.0000      -0.546205       -14.8630
 112   2.0000      -0.542567       -14.7640
 113   2.0000      -0.541643       -14.7389
 114   2.0000      -0.540817       -14.7164
 115   2.0000      -0.529627       -14.4119
 116   2.0000      -0.527816       -14.3626
 117   2.0000      -0.526015       -14.3136
 118   2.0000      -0.524076       -14.2608
 119   2.0000      -0.521374       -14.1873
 120   2.0000      -0.518759       -14.1161
 121   2.0000      -0.517791       -14.0898
 122   2.0000      -0.515752       -14.0343
 123   2.0000      -0.509199       -13.8560
 124   2.0000      -0.501588       -13.6489
 125   2.0000      -0.495990       -13.4966
 126   2.0000      -0.494783       -13.4637
 127   2.0000      -0.484235       -13.1767
 128   2.0000      -0.480712       -13.0808
 129   2.0000      -0.474743       -12.9184
 130   2.0000      -0.471915       -12.8414
 131   2.0000      -0.470327       -12.7982
 132   2.0000      -0.464917       -12.6510
 133   2.0000      -0.447987       -12.1904
 134   2.0000      -0.445803       -12.1309
 135   2.0000      -0.443936       -12.0801
 136   2.0000      -0.443749       -12.0750
 137   2.0000      -0.440895       -11.9974
 138   2.0000      -0.437698       -11.9104
 139   2.0000      -0.433482       -11.7956
 140   2.0000      -0.415729       -11.3126
 141   2.0000      -0.414547       -11.2804
 142   2.0000      -0.406184       -11.0528
 143   2.0000      -0.404140       -10.9972
 144   2.0000      -0.396384       -10.7862
 145   2.0000      -0.389684       -10.6038
 146   2.0000      -0.386845       -10.5266
 147   2.0000      -0.382192       -10.4000
 148   2.0000      -0.380346       -10.3497
 149   2.0000      -0.340742        -9.2721
 150   2.0000      -0.317900        -8.6505
 151   2.0000      -0.317235        -8.6324
 152   2.0000      -0.312364        -8.4998
 153   2.0000      -0.308012        -8.3814
 154   2.0000      -0.301480        -8.2037
 155   2.0000      -0.293203        -7.9785
 156   2.0000      -0.283248        -7.7076
 157   2.0000      -0.279251        -7.5988
 158   2.0000      -0.277604        -7.5540
 159   0.0000      -0.025718        -0.6998
 160   0.0000      -0.018723        -0.5095
 161   0.0000      -0.017123        -0.4659
 162   0.0000      -0.012595        -0.3427
 163   0.0000      -0.008306        -0.2260

MULLIKEN ATOMIC CHARGES
-----------------------
   0 C :    0.194995
   1 C :    0.170883
   2 C :   -0.022776
   3 C :    0.055172
   4 C :   -0.070391
   5 C :    0.200118
   6 C :    0.182546
   7 C :   -0.061278
   8 C :    0.081479
   9 C :   -0.083779
  10 H :    0.103523
  11 H :    0.058599
  12 H :    0.108277
  13 H :    0.068933
  14 H :    0.066837
  15 C :    0.197640
  16 C :    0.183505
  17 C :   -0.057516
  18 C :    0.078890
  19 C :   -0.077658
  20 C :    0.199332
  21 C :    0.182334
  22 C :   -0.059714
  23 C :    0.080137
  24 C :   -0.080398
  25 H :    0.109292
  26 H :    0.069122
  27 H :    0.067640
  28 H :    0.109039
  29 H :    0.069406
  30 H :    0.067607
  31 C :    0.200042
  32 C :    0.182273
  33 C :   -0.059612
  34 C :    0.080917
  35 C :   -0.079577
  36 C :    0.198081
  37 C :    0.181872
  38 C :   -0.060445
  39 C :    0.081615
  40 C :   -0.081779
  41 H :    0.109257
  42 H :    0.067136
  43 H :    0.109883
  44 H :    0.067179
  45 N :   -0.410761
  46 N :   -0.409340
  47 N :   -0.410943
  48 N :   -0.406532
  49 N :   -0.415705
  50 N :   -0.411556
  51 Ru:    0.710525
  52 C :    0.006965
  53 C :    0.006931
  54 C :    0.009265
  55 C :    0.004375
  56 C :    0.006261
  57 C :    0.007024
  58 H :    0.052112
  59 H :    0.052236
  60 H :    0.052734
  61 H :    0.051617
  62 H :    0.052743
  63 H :    0.052993
  64 H :    0.069067
  65 H :    0.069110
  66 C :   -0.176736
  67 C :   -0.092268
  68 H :    0.065594
  69 H :    0.061668
  70 C :    0.061304
  71 H :    0.055686
  72 H :    0.055590
  73 H :    0.041402
Sum of atomic charges:    2.0000000

LOEWDIN ATOMIC CHARGES
----------------------
   0 C :    0.054780
   1 C :    0.109323
   2 C :   -0.036941
   3 C :    0.062704
   4 C :   -0.027662
   5 C :    0.056802
   6 C :    0.108649
   7 C :   -0.032505
   8 C :    0.054300
   9 C :   -0.028723
  10 H :    0.052126
  11 H :    0.055440
  12 H :    0.056542
  13 H :    0.055566
  14 H :    0.057635
  15 C :    0.056438
  16 C :    0.109329
  17 C :   -0.031601
  18 C :    0.054868
  19 C :   -0.028315
  20 C :    0.056690
  21 C :    0.109151
  22 C :   -0.031877
  23 C :    0.054635
  24 C :   -0.028410
  25 H :    0.056689
  26 H :    0.055845
  27 H :    0.057845
  28 H :    0.056614
  29 H :    0.055797
  30 H :    0.057744
  31 C :    0.056723
  32 C :    0.108978
  33 C :   -0.031970
  34 C :    0.054339
  35 C :   -0.028620
  36 C :    0.056712
  37 C :    0.109112
  38 C :   -0.031922
  39 C :    0.054522
  40 C :   -0.028713
  41 H :    0.056688
  42 H :    0.057603
  43 H :    0.056784
  44 H :    0.057679
  45 N :    0.051606
  46 N :    0.050079
  47 N :    0.050875
  48 N :    0.055678
  49 N :    0.050934
  50 N :    0.051068
  51 Ru:   -0.577412
  52 C :   -0.002432
  53 C :   -0.002639
  54 C :   -0.003273
  55 C :   -0.002000
  56 C :   -0.002301
  57 C :   -0.002631
  58 H :    0.051506
  59 H :    0.051472
  60 H :    0.051241
  61 H :    0.051393
  62 H :    0.051623
  63 H :    0.051634
  64 H :    0.055706
  65 H :    0.055750
  66 C :   -0.033769
  67 C :   -0.046902
  68 H :    0.031525
  69 H :    0.033991
  70 C :   -0.038768
  71 H :    0.036785
  72 H :    0.036724
  73 H :    0.035143

  Mayer bond orders larger than 0.100000
B(  0-C ,  4-C ) :   1.3170 B(  0-C ,  5-C ) :   1.1836 B(  0-C , 48-N ) :   1.2083
B(  1-C ,  2-C ) :   1.3159 B(  1-C , 10-H ) :   0.9543 B(  1-C , 48-N ) :   1.4378
B(  2-C ,  3-C ) :   1.4365 B(  2-C , 66-C ) :   1.0044 B(  3-C ,  4-C ) :   1.3269
B(  3-C , 11-H ) :   0.9907 B(  4-C , 55-C ) :   1.1339 B(  5-C ,  9-C ) :   1.3313
B(  5-C , 46-N ) :   1.2017 B(  6-C ,  7-C ) :   1.3320 B(  6-C , 12-H ) :   0.9572
B(  6-C , 46-N ) :   1.4367 B(  7-C ,  8-C ) :   1.4722 B(  7-C , 13-H ) :   0.9857
B(  8-C ,  9-C ) :   1.2968 B(  8-C , 14-H ) :   0.9887 B(  9-C , 54-C ) :   1.1380
B( 15-C , 19-C ) :   1.3329 B( 15-C , 20-C ) :   1.1864 B( 15-C , 49-N ) :   1.1970
B( 16-C , 17-C ) :   1.3325 B( 16-C , 25-H ) :   0.9562 B( 16-C , 49-N ) :   1.4355
B( 17-C , 18-C ) :   1.4727 B( 17-C , 26-H ) :   0.9868 B( 18-C , 19-C ) :   1.2911
B( 18-C , 27-H ) :   0.9899 B( 19-C , 57-C ) :   1.1428 B( 20-C , 24-C ) :   1.3336
B( 20-C , 47-N ) :   1.1989 B( 21-C , 22-C ) :   1.3305 B( 21-C , 28-H ) :   0.9564
B( 21-C , 47-N ) :   1.4389 B( 22-C , 23-C ) :   1.4760 B( 22-C , 29-H ) :   0.9859
B( 23-C , 24-C ) :   1.2912 B( 23-C , 30-H ) :   0.9895 B( 24-C , 56-C ) :   1.1433
B( 31-C , 35-C ) :   1.3329 B( 31-C , 36-C ) :   1.1860 B( 31-C , 45-N ) :   1.1985
B( 32-C , 33-C ) :   1.3309 B( 32-C , 41-H ) :   0.9563 B( 32-C , 45-N ) :   1.4377
B( 33-C , 34-C ) :   1.4758 B( 33-C , 64-H ) :   0.9859 B( 34-C , 35-C ) :   1.2919
B( 34-C , 42-H ) :   0.9894 B( 35-C , 52-C ) :   1.1429 B( 36-C , 40-C ) :   1.3327
B( 36-C , 50-N ) :   1.1995 B( 37-C , 38-C ) :   1.3311 B( 37-C , 43-H ) :   0.9562
B( 37-C , 50-N ) :   1.4387 B( 38-C , 39-C ) :   1.4761 B( 38-C , 65-H ) :   0.9858
B( 39-C , 40-C ) :   1.2919 B( 39-C , 44-H ) :   0.9891 B( 40-C , 53-C ) :   1.1433
B( 45-N , 51-Ru) :   0.4028 B( 46-N , 51-Ru) :   0.3990 B( 47-N , 51-Ru) :   0.3996
B( 48-N , 51-Ru) :   0.3993 B( 49-N , 51-Ru) :   0.4008 B( 50-N , 51-Ru) :   0.4003
B( 52-C , 53-C ) :   1.6020 B( 52-C , 59-H ) :   1.0076 B( 53-C , 58-H ) :   1.0072
B( 54-C , 55-C ) :   1.6078 B( 54-C , 61-H ) :   1.0069 B( 55-C , 60-H ) :   1.0073
B( 56-C , 57-C ) :   1.6010 B( 56-C , 63-H ) :   1.0075 B( 57-C , 62-H ) :   1.0075
B( 66-C , 67-C ) :   1.9756 B( 66-C , 70-C ) :   1.0601 B( 67-C , 68-H ) :   0.9574
B( 67-C , 69-H ) :   0.9556 B( 70-C , 71-H ) :   0.9528 B( 70-C , 72-H ) :   0.9525
B( 70-C , 73-H ) :   0.9637

MP2 TOTAL ENERGY:    -1922.511615003 Eh

-----------------------------------------------------------------------------
         ABSORPTION SPECTRUM VIA TRANSITION ELECTRIC DIPOLE MOMENTS
-----------------------------------------------------------------------------
State   Energy    Wavelength  fosc         T2        TX        TY        TZ
        (cm-1)      (nm)                 (au**2)    (au)      (au)      (au)
-----------------------------------------------------------------------------
   1   31169.1    320.8   0.000863720   0.00912  -0.09520   0.00586   0.00497
   2   31248.3    320.0   0.000616100   0.00649  -0.00894   0.07950  -0.00952
   3   32555.6    307.2   0.000093893   0.00095   0.02055   0.02099   0.00930
   4   26982.9    370.6   0.112193135   1.36884   0.63954  -0.58728   0.78418
   5   24553.2    407.3   0.092561248   1.24107   0.72883   0.84097  -0.05137
   6   24567.2    407.0   0.123604423   1.65635  -1.01071   0.71581   0.34990
   7   23560.7    424.4   0.005196003   0.07260  -0.21708  -0.15778   0.02418
   8   23396.4    427.4   0.011992217   0.16874   0.34500  -0.21649   0.05337
   9   27118.1    368.8   0.019161050   0.23261   0.32057   0.35678  -0.05052
  10   22358.9    447.2   0.004004050   0.05896   0.19006  -0.13410   0.06964
  11   23861.4    419.1   0.001873018   0.02584  -0.10485   0.12172   0.00562
  12   22295.3    448.5   0.007302696   0.10783   0.23506  -0.22925  -0.00451
  13   23394.1    427.5   0.027213602   0.38296   0.19900  -0.41674   0.41193
  14   29235.7    342.0   0.013699723   0.15427  -0.22788  -0.26744   0.17553
  15   27823.3    359.4   0.070285130   0.83163   0.05430   0.58413   0.69820
  16   28542.9    350.3   0.115362623   1.33058  -0.67975  -0.84316   0.39700
  17   33875.3    295.2   0.015930638   0.15482  -0.06753   0.29800   0.24790
  18   35224.2    283.9   0.006281308   0.05871  -0.00902  -0.23879   0.04005
  19   32904.4    303.9   0.107085343   1.07140  -0.21198  -0.93581   0.38824
  20   27914.1    358.2   0.361972306   4.26901  -1.84191   0.93610  -0.01007
  21   32631.8    306.4   0.603583777   6.08936   2.00868  -0.48572   1.34857
  22   27684.1    361.2   0.011280265   0.13414   0.04083   0.33652  -0.13867
  23   26596.3    376.0   0.118514949   1.46699   0.85008   0.85724  -0.09745
  24   24662.3    405.5   0.011006156   0.14692  -0.02060  -0.03102   0.38149
  25   23336.8    428.5   0.026944067   0.38010   0.05563   0.54506  -0.28269
  26   34269.8    291.8   0.253312723   2.43344   0.75173   1.32272  -0.34460
  27   26146.3    382.5   0.047723835   0.60090   0.64391   0.25030  -0.35161
  28   23285.8    429.4   0.048310056   0.68300   0.48761  -0.48338  -0.45999
  29   24597.0    406.6   0.053428006   0.71509  -0.29728  -0.21250  -0.76260
  30   36257.2    275.8   1.307253282  11.86973  -0.75966  -0.47616  -3.32655
  31   26630.7    375.5   0.005429485   0.06712   0.24746   0.00488  -0.07654
  32   26835.9    372.6   0.012005320   0.14728  -0.12600  -0.36002  -0.04226
  33   26901.0    371.7   0.000995860   0.01219  -0.09307  -0.03839  -0.04530
  34   30355.3    329.4   0.144227047   1.56418  -1.01959  -0.66935  -0.27676
  35   38746.4    258.1   0.066133866   0.56191   0.61463   0.42660  -0.04645
  36   36955.5    270.6   0.409323698   3.64639  -1.49370   1.07219   0.51541
  37   38378.9    260.6   0.088167011   0.75629  -0.41003  -0.66314   0.38525
  38   38621.6    258.9   0.005050185   0.04305   0.00679  -0.20728   0.00610
  39   38855.0    257.4   0.070741715   0.59938  -0.29807   0.56343  -0.43941
  40   39209.9    255.0   0.058911204   0.49463  -0.23064   0.54723  -0.37680

FINAL SINGLE POINT ENERGY     -1919.661899899298

DIPOLE MOMENT
-------------
                                X             Y             Z
Electronic contribution:     35.81179      -1.76214      19.80415
Nuclear contribution   :    -34.75061       1.93911     -19.30544
                        -----------------------------------------
Total Dipole Moment    :      1.06118       0.17697       0.49871
                        -----------------------------------------
Magnitude (a.u.)       :      1.18581
Magnitude (Debye)      :      3.01408

Rotational constants in cm-1:     0.002931     0.002526     0.002104
Rotational constants in MHz :    87.864409    75.721626    63.072758

                             ****ORCA TERMINATED NORMALLY****
TOTAL RUN TIME: 0 days 2 hours 11 minutes 59 seconds 666 msec
