                         Program Version 5.0.4 -  RELEASE  -
|  1> %maxcore 6000
|  2> %pal
|  3>  nprocs 8
|  4> end
|  5> ! RI-wB2PLYP def2-SVP def2/J def2-SVP/C RIJCOSX CPCM TIGHTSCF
|  6>
|  7> %TDDFT
|  8>     DCORR      1
|  9>     NROOTS    40
| 10>     TDA       FALSE
| 11> END
| 12>
| 13> %CPCM
| 14>     SMD		TRUE
| 15>     SMDsolvent	"DMF"
| 16> END
| 17>
| 18> * xyz 2 1
| 19> C                  -1.67762600   -2.06917600    0.26663300
| 20> C                  -2.41976900   -0.35506600   -1.10525600
| 21> C                  -3.64054900   -1.01297700   -1.38146000
| 22> C                  -3.83977500   -2.26012400   -0.78603600
| 23> C                  -2.86017500   -2.81414300    0.05348900
| 24> C                  -0.64603500   -2.57041500    1.10931800
| 25> C                   1.44308500   -2.22864100    2.05449600
| 26> C                   1.37107100   -3.45610900    2.72594600
| 27> C                   0.25377000   -4.25800100    2.57879900
| 28> C                  -0.79899200   -3.82255400    1.74914100
| 29> H                  -2.20348800    0.61917600   -1.54629500
| 30> H                  -4.75670000   -2.82685600   -0.95693900
| 31> H                   2.31664400   -1.58092100    2.16092700
| 32> H                   2.20519900   -3.76067100    3.35881600
| 33> H                   0.17640700   -5.21804400    3.09326600
| 34> C                  -0.67339700    2.70837900   -0.05312000
| 35> C                   0.28364100    2.10199200   -2.07678600
| 36> C                  -0.06962300    3.33263900   -2.64593400
| 37> C                  -0.74150200    4.27374300   -1.88863600
| 38> C                  -1.06092100    3.97552600   -0.54795300
| 39> C                  -0.98229700    2.33684100    1.28747800
| 40> C                  -0.86513200    0.71554500    2.94084800
| 41> C                  -1.52816500    1.55169900    3.84900700
| 42> C                  -1.93001300    2.81414400    3.45518900
| 43> C                  -1.66090300    3.24064700    2.13824800
| 44> H                   0.81430900    1.34564600   -2.66004600
| 45> H                   0.19565500    3.52842800   -3.68531800
| 46> H                  -1.02608800    5.23987000   -2.31036100
| 47> H                  -0.54138600   -0.28590700    3.23440100
| 48> H                  -1.72009400    1.18704000    4.85864000
| 49> H                  -2.45085000    3.48178900    4.14451300
| 50> C                   3.23412000    0.19880600   -0.22862400
| 51> C                   2.68339500    1.39646100    1.67891500
| 52> C                   4.02351900    1.75439600    1.87621500
| 53> C                   4.99043500    1.31827600    0.98984900
| 54> C                   4.60716500    0.51520700   -0.10406100
| 55> C                   2.77992400   -0.61361700   -1.30748600
| 56> C                   0.98382300   -1.63523300   -2.36009000
| 57> C                   1.82485800   -2.15757100   -3.35148700
| 58> C                   3.18147600   -1.89533500   -3.31194000
| 59> C                   3.69765300   -1.10225100   -2.26646500
| 60> H                   1.90544100    1.73094300    2.36951600
| 61> H                   6.04067700    1.58549700    1.12343700
| 62> H                  -0.09133400   -1.82982300   -2.37615000
| 63> H                   3.85546200   -2.29168000   -4.07407900
| 64> N                   2.29071800    0.63576100    0.65528400
| 65> N                   0.46103900   -1.78766600    1.26545600
| 66> N                  -0.59313200    1.09239100    1.69009600
| 67> N                  -1.47103100   -0.85747600   -0.31699100
| 68> N                  -0.01102000    1.78870800   -0.81332900
| 69> N                   1.44226000   -0.87808700   -1.36144800
| 70> Ru                  0.36080900   -0.00017200    0.18929900
| 71> C                   5.51802000    0.00759000   -1.08472300
| 72> C                   5.08178500   -0.76686700   -2.12215900
| 73> C                  -2.00317200   -4.56431000    1.51982500
| 74> C                  -2.99008000   -4.08297000    0.70778800
| 75> C                  -2.03492300    4.52072000    1.61867400
| 76> C                  -1.75019700    4.87194600    0.32958100
| 77> H                   5.78528600   -1.14774300   -2.86536700
| 78> H                   6.57648500    0.25619200   -0.98346900
| 79> H                  -3.90321000   -4.65855900    0.54243700
| 80> H                  -2.11475400   -5.53118100    2.01503300
| 81> H                  -2.04404200    5.84954600   -0.05820200
| 82> H                  -2.55962000    5.21304700    2.28029100
| 83> H                   4.28251500    2.37741300    2.73292400
| 84> H                   1.39050900   -2.76799900   -4.14390000
| 85> C                  -4.63221300   -0.36219000   -2.26657700
| 86> C                  -5.80902100   -0.94423200   -2.56200300
| 87> H                  -6.10834500   -1.92100400   -2.17663300
| 88> H                  -6.52586300   -0.44316400   -3.21675100
| 89> C                  -4.28434800    0.98137800   -2.82737800
| 90> H                  -4.09873700    1.72172300   -2.03314000
| 91> H                  -3.36834600    0.94781100   -3.43802900
| 92> H                  -5.09264700    1.36665600   -3.45976600
| 93> *
| 94>
| 95>                          ****END OF INPUT****

CARTESIAN COORDINATES (ANGSTROEM)
---------------------------------
  C     -1.677626   -2.069176    0.266633
  C     -2.419769   -0.355066   -1.105256
  C     -3.640549   -1.012977   -1.381460
  C     -3.839775   -2.260124   -0.786036
  C     -2.860175   -2.814143    0.053489
  C     -0.646035   -2.570415    1.109318
  C      1.443085   -2.228641    2.054496
  C      1.371071   -3.456109    2.725946
  C      0.253770   -4.258001    2.578799
  C     -0.798992   -3.822554    1.749141
  H     -2.203488    0.619176   -1.546295
  H     -4.756700   -2.826856   -0.956939
  H      2.316644   -1.580921    2.160927
  H      2.205199   -3.760671    3.358816
  H      0.176407   -5.218044    3.093266
  C     -0.673397    2.708379   -0.053120
  C      0.283641    2.101992   -2.076786
  C     -0.069623    3.332639   -2.645934
  C     -0.741502    4.273743   -1.888636
  C     -1.060921    3.975526   -0.547953
  C     -0.982297    2.336841    1.287478
  C     -0.865132    0.715545    2.940848
  C     -1.528165    1.551699    3.849007
  C     -1.930013    2.814144    3.455189
  C     -1.660903    3.240647    2.138248
  H      0.814309    1.345646   -2.660046
  H      0.195655    3.528428   -3.685318
  H     -1.026088    5.239870   -2.310361
  H     -0.541386   -0.285907    3.234401
  H     -1.720094    1.187040    4.858640
  H     -2.450850    3.481789    4.144513
  C      3.234120    0.198806   -0.228624
  C      2.683395    1.396461    1.678915
  C      4.023519    1.754396    1.876215
  C      4.990435    1.318276    0.989849
  C      4.607165    0.515207   -0.104061
  C      2.779924   -0.613617   -1.307486
  C      0.983823   -1.635233   -2.360090
  C      1.824858   -2.157571   -3.351487
  C      3.181476   -1.895335   -3.311940
  C      3.697653   -1.102251   -2.266465
  H      1.905441    1.730943    2.369516
  H      6.040677    1.585497    1.123437
  H     -0.091334   -1.829823   -2.376150
  H      3.855462   -2.291680   -4.074079
  N      2.290718    0.635761    0.655284
  N      0.461039   -1.787666    1.265456
  N     -0.593132    1.092391    1.690096
  N     -1.471031   -0.857476   -0.316991
  N     -0.011020    1.788708   -0.813329
  N      1.442260   -0.878087   -1.361448
  Ru     0.360809   -0.000172    0.189299
  C      5.518020    0.007590   -1.084723
  C      5.081785   -0.766867   -2.122159
  C     -2.003172   -4.564310    1.519825
  C     -2.990080   -4.082970    0.707788
  C     -2.034923    4.520720    1.618674
  C     -1.750197    4.871946    0.329581
  H      5.785286   -1.147743   -2.865367
  H      6.576485    0.256192   -0.983469
  H     -3.903210   -4.658559    0.542437
  H     -2.114754   -5.531181    2.015033
  H     -2.044042    5.849546   -0.058202
  H     -2.559620    5.213047    2.280291
  H      4.282515    2.377413    2.732924
  H      1.390509   -2.767999   -4.143900
  C     -4.632213   -0.362190   -2.266577
  C     -5.809021   -0.944232   -2.562003
  H     -6.108345   -1.921004   -2.176633
  H     -6.525863   -0.443164   -3.216751
  C     -4.284348    0.981378   -2.827378
  H     -4.098737    1.721723   -2.033140
  H     -3.368346    0.947811   -3.438029
  H     -5.092647    1.366656   -3.459766

 Total Charge           Charge          ....    2
 Multiplicity           Mult            ....    1
 Number of Electrons    NEL             ....  318
 Basis Dimension        Dim             ....  801

ORBITAL ENERGIES
----------------

  NO   OCC          E(Eh)            E(eV)
   0   2.0000     -14.978255      -407.5791
   1   2.0000     -14.978128      -407.5756
   2   2.0000     -14.977975      -407.5714
   3   2.0000     -14.977972      -407.5713
   4   2.0000     -14.977885      -407.5690
   5   2.0000     -14.977804      -407.5668
   6   2.0000     -10.767842      -293.0079
   7   2.0000     -10.767523      -292.9992
   8   2.0000     -10.767279      -292.9925
   9   2.0000     -10.767221      -292.9910
  10   2.0000     -10.766922      -292.9828
  11   2.0000     -10.766482      -292.9709
  12   2.0000     -10.766167      -292.9623
  13   2.0000     -10.766096      -292.9604
  14   2.0000     -10.765992      -292.9575
  15   2.0000     -10.765882      -292.9546
  16   2.0000     -10.765838      -292.9534
  17   2.0000     -10.764855      -292.9266
  18   2.0000     -10.738868      -292.2194
  19   2.0000     -10.738576      -292.2115
  20   2.0000     -10.738512      -292.2098
  21   2.0000     -10.738433      -292.2076
  22   2.0000     -10.738430      -292.2075
  23   2.0000     -10.738042      -292.1970
  24   2.0000     -10.737965      -292.1949
  25   2.0000     -10.737746      -292.1889
  26   2.0000     -10.737668      -292.1868
  27   2.0000     -10.737597      -292.1849
  28   2.0000     -10.737572      -292.1842
  29   2.0000     -10.737337      -292.1778
  30   2.0000     -10.734826      -292.1095
  31   2.0000     -10.724077      -291.8170
  32   2.0000     -10.723781      -291.8089
  33   2.0000     -10.723727      -291.8074
  34   2.0000     -10.723631      -291.8048
  35   2.0000     -10.723627      -291.8047
  36   2.0000     -10.723130      -291.7912
  37   2.0000     -10.723053      -291.7891
  38   2.0000     -10.723034      -291.7886
  39   2.0000     -10.722241      -291.7670
  40   2.0000     -10.722148      -291.7645
  41   2.0000     -10.722145      -291.7644
  42   2.0000     -10.719884      -291.7029
  43   2.0000     -10.697065      -291.0819
  44   2.0000     -10.690346      -290.8991
  45   2.0000      -3.299550       -89.7853
  46   2.0000      -2.076309       -56.4993
  47   2.0000      -2.075973       -56.4901
  48   2.0000      -2.068851       -56.2963
  49   2.0000      -1.212530       -32.9946
  50   2.0000      -1.205081       -32.7919
  51   2.0000      -1.204861       -32.7859
  52   2.0000      -1.176543       -32.0154
  53   2.0000      -1.176019       -32.0011
  54   2.0000      -1.175728       -31.9932
  55   2.0000      -1.073177       -29.2026
  56   2.0000      -1.070785       -29.1375
  57   2.0000      -1.070645       -29.1337
  58   2.0000      -1.046920       -28.4881
  59   2.0000      -1.024345       -27.8738
  60   2.0000      -1.024086       -27.8668
  61   2.0000      -1.022927       -27.8353
  62   2.0000      -1.020419       -27.7670
  63   2.0000      -1.020139       -27.7594
  64   2.0000      -0.990869       -26.9629
  65   2.0000      -0.956044       -26.0153
  66   2.0000      -0.955736       -26.0069
  67   2.0000      -0.952749       -25.9256
  68   2.0000      -0.951812       -25.9001
  69   2.0000      -0.951373       -25.8882
  70   2.0000      -0.941564       -25.6213
  71   2.0000      -0.873224       -23.7616
  72   2.0000      -0.853843       -23.2342
  73   2.0000      -0.852520       -23.1983
  74   2.0000      -0.852154       -23.1883
  75   2.0000      -0.837900       -22.8004
  76   2.0000      -0.837209       -22.7816
  77   2.0000      -0.834695       -22.7132
  78   2.0000      -0.829185       -22.5633
  79   2.0000      -0.828927       -22.5563
  80   2.0000      -0.827251       -22.5106
  81   2.0000      -0.792997       -21.5786
  82   2.0000      -0.791383       -21.5346
  83   2.0000      -0.790914       -21.5219
  84   2.0000      -0.745230       -20.2787
  85   2.0000      -0.731513       -19.9055
  86   2.0000      -0.729960       -19.8632
  87   2.0000      -0.729151       -19.8412
  88   2.0000      -0.716636       -19.5007
  89   2.0000      -0.715531       -19.4706
  90   2.0000      -0.695100       -18.9146
  91   2.0000      -0.694188       -18.8898
  92   2.0000      -0.692826       -18.8528
  93   2.0000      -0.692563       -18.8456
  94   2.0000      -0.655892       -17.8477
  95   2.0000      -0.653596       -17.7852
  96   2.0000      -0.652394       -17.7526
  97   2.0000      -0.651300       -17.7228
  98   2.0000      -0.650068       -17.6893
  99   2.0000      -0.645099       -17.5540
 100   2.0000      -0.639215       -17.3939
 101   2.0000      -0.638831       -17.3835
 102   2.0000      -0.637501       -17.3473
 103   2.0000      -0.614579       -16.7235
 104   2.0000      -0.613587       -16.6966
 105   2.0000      -0.607740       -16.5374
 106   2.0000      -0.604243       -16.4423
 107   2.0000      -0.598327       -16.2813
 108   2.0000      -0.592974       -16.1356
 109   2.0000      -0.592507       -16.1229
 110   2.0000      -0.587738       -15.9932
 111   2.0000      -0.587424       -15.9846
 112   2.0000      -0.582692       -15.8559
 113   2.0000      -0.581818       -15.8321
 114   2.0000      -0.581011       -15.8101
 115   2.0000      -0.570109       -15.5134
 116   2.0000      -0.568429       -15.4677
 117   2.0000      -0.566592       -15.4178
 118   2.0000      -0.566289       -15.4095
 119   2.0000      -0.564384       -15.3577
 120   2.0000      -0.561496       -15.2791
 121   2.0000      -0.558669       -15.2021
 122   2.0000      -0.555816       -15.1245
 123   2.0000      -0.553713       -15.0673
 124   2.0000      -0.548040       -14.9129
 125   2.0000      -0.541104       -14.7242
 126   2.0000      -0.535160       -14.5624
 127   2.0000      -0.523639       -14.2489
 128   2.0000      -0.519861       -14.1461
 129   2.0000      -0.514301       -13.9948
 130   2.0000      -0.511058       -13.9066
 131   2.0000      -0.509297       -13.8587
 132   2.0000      -0.504496       -13.7280
 133   2.0000      -0.490859       -13.3570
 134   2.0000      -0.490404       -13.3446
 135   2.0000      -0.487772       -13.2729
 136   2.0000      -0.485209       -13.2032
 137   2.0000      -0.480546       -13.0763
 138   2.0000      -0.479940       -13.0598
 139   2.0000      -0.476652       -12.9704
 140   2.0000      -0.454822       -12.3763
 141   2.0000      -0.453612       -12.3434
 142   2.0000      -0.449906       -12.2426
 143   2.0000      -0.443854       -12.0779
 144   2.0000      -0.440642       -11.9905
 145   2.0000      -0.434238       -11.8162
 146   2.0000      -0.430973       -11.7274
 147   2.0000      -0.425758       -11.5855
 148   2.0000      -0.423846       -11.5334
 149   2.0000      -0.382619       -10.4116
 150   2.0000      -0.357435        -9.7263
 151   2.0000      -0.357159        -9.7188
 152   2.0000      -0.352509        -9.5923
 153   2.0000      -0.347719        -9.4619
 154   2.0000      -0.341108        -9.2820
 155   2.0000      -0.332196        -9.0395
 156   2.0000      -0.321623        -8.7518
 157   2.0000      -0.316478        -8.6118
 158   2.0000      -0.315055        -8.5731
 159   0.0000      -0.001849        -0.0503
 160   0.0000       0.005651         0.1538
 161   0.0000       0.007351         0.2000
 162   0.0000       0.011241         0.3059
 163   0.0000       0.015880         0.4321

MULLIKEN ATOMIC CHARGES
-----------------------
   0 C :    0.162559
   1 C :    0.131712
   2 C :    0.003349
   3 C :    0.034426
   4 C :   -0.052518
   5 C :    0.171965
   6 C :    0.152040
   7 C :   -0.055853
   8 C :    0.065984
   9 C :   -0.066835
  10 H :    0.102740
  11 H :    0.062050
  12 H :    0.111805
  13 H :    0.073637
  14 H :    0.071949
  15 C :    0.167049
  16 C :    0.153893
  17 C :   -0.052686
  18 C :    0.063137
  19 C :   -0.059803
  20 C :    0.169100
  21 C :    0.151812
  22 C :   -0.054558
  23 C :    0.064725
  24 C :   -0.062691
  25 H :    0.112356
  26 H :    0.073783
  27 H :    0.072702
  28 H :    0.112379
  29 H :    0.074034
  30 H :    0.072626
  31 C :    0.169404
  32 C :    0.151925
  33 C :   -0.054502
  34 C :    0.065379
  35 C :   -0.062127
  36 C :    0.167796
  37 C :    0.151479
  38 C :   -0.055031
  39 C :    0.065876
  40 C :   -0.063775
  41 H :    0.112375
  42 H :    0.072182
  43 H :    0.113223
  44 H :    0.072273
  45 N :   -0.335196
  46 N :   -0.334138
  47 N :   -0.335457
  48 N :   -0.327877
  49 N :   -0.339815
  50 N :   -0.336128
  51 Ru:    0.541372
  52 C :   -0.003723
  53 C :   -0.003902
  54 C :   -0.001082
  55 C :   -0.006702
  56 C :   -0.004381
  57 C :   -0.003897
  58 H :    0.056298
  59 H :    0.056375
  60 H :    0.057095
  61 H :    0.055855
  62 H :    0.056870
  63 H :    0.057065
  64 H :    0.073731
  65 H :    0.073761
  66 C :   -0.159882
  67 C :   -0.111011
  68 H :    0.068990
  69 H :    0.065269
  70 C :    0.034911
  71 H :    0.061712
  72 H :    0.062432
  73 H :    0.048113
Sum of atomic charges:    2.0000000

LOEWDIN ATOMIC CHARGES
----------------------
   0 C :    0.051119
   1 C :    0.102042
   2 C :   -0.036530
   3 C :    0.059415
   4 C :   -0.027524
   5 C :    0.053002
   6 C :    0.101942
   7 C :   -0.035737
   8 C :    0.051398
   9 C :   -0.028818
  10 H :    0.055502
  11 H :    0.059453
  12 H :    0.060445
  13 H :    0.059810
  14 H :    0.061879
  15 C :    0.052541
  16 C :    0.102637
  17 C :   -0.035064
  18 C :    0.051929
  19 C :   -0.028534
  20 C :    0.052789
  21 C :    0.102402
  22 C :   -0.035259
  23 C :    0.051658
  24 C :   -0.028563
  25 H :    0.060543
  26 H :    0.060065
  27 H :    0.062074
  28 H :    0.060484
  29 H :    0.060003
  30 H :    0.061953
  31 C :    0.052833
  32 C :    0.102257
  33 C :   -0.035375
  34 C :    0.051351
  35 C :   -0.028799
  36 C :    0.052810
  37 C :    0.102372
  38 C :   -0.035290
  39 C :    0.051512
  40 C :   -0.028867
  41 H :    0.060530
  42 H :    0.061818
  43 H :    0.060648
  44 H :    0.061897
  45 N :    0.064952
  46 N :    0.063564
  47 N :    0.064211
  48 N :    0.069127
  49 N :    0.064248
  50 N :    0.064396
  51 Ru:   -0.628215
  52 C :   -0.006279
  53 C :   -0.006520
  54 C :   -0.006919
  55 C :   -0.005828
  56 C :   -0.006137
  57 C :   -0.006495
  58 H :    0.055483
  59 H :    0.055452
  60 H :    0.055289
  61 H :    0.055425
  62 H :    0.055605
  63 H :    0.055609
  64 H :    0.059913
  65 H :    0.059963
  66 C :   -0.033415
  67 C :   -0.054936
  68 H :    0.035065
  69 H :    0.037714
  70 C :   -0.052888
  71 H :    0.041353
  72 H :    0.041473
  73 H :    0.040038

  Mayer bond orders larger than 0.100000
B(  0-C ,  4-C ) :   1.3305 B(  0-C ,  5-C ) :   1.1757 B(  0-C , 48-N ) :   1.2270
B(  1-C ,  2-C ) :   1.3176 B(  1-C , 10-H ) :   0.9475 B(  1-C , 48-N ) :   1.4527
B(  2-C ,  3-C ) :   1.4431 B(  2-C , 66-C ) :   0.9984 B(  3-C ,  4-C ) :   1.3243
B(  3-C , 11-H ) :   0.9858 B(  4-C , 55-C ) :   1.1248 B(  5-C ,  9-C ) :   1.3433
B(  5-C , 46-N ) :   1.2198 B(  6-C ,  7-C ) :   1.3343 B(  6-C , 12-H ) :   0.9521
B(  6-C , 46-N ) :   1.4500 B(  7-C ,  8-C ) :   1.4815 B(  7-C , 13-H ) :   0.9827
B(  8-C ,  9-C ) :   1.2952 B(  8-C , 14-H ) :   0.9858 B(  9-C , 54-C ) :   1.1288
B( 15-C , 19-C ) :   1.3446 B( 15-C , 20-C ) :   1.1797 B( 15-C , 49-N ) :   1.2152
B( 16-C , 17-C ) :   1.3346 B( 16-C , 25-H ) :   0.9512 B( 16-C , 49-N ) :   1.4487
B( 17-C , 18-C ) :   1.4815 B( 17-C , 26-H ) :   0.9838 B( 18-C , 19-C ) :   1.2897
B( 18-C , 27-H ) :   0.9868 B( 19-C , 57-C ) :   1.1334 B( 20-C , 24-C ) :   1.3452
B( 20-C , 47-N ) :   1.2171 B( 21-C , 22-C ) :   1.3326 B( 21-C , 28-H ) :   0.9513
B( 21-C , 47-N ) :   1.4523 B( 22-C , 23-C ) :   1.4850 B( 22-C , 29-H ) :   0.9828
B( 23-C , 24-C ) :   1.2901 B( 23-C , 30-H ) :   0.9864 B( 24-C , 56-C ) :   1.1339
B( 31-C , 35-C ) :   1.3446 B( 31-C , 36-C ) :   1.1794 B( 31-C , 45-N ) :   1.2170
B( 32-C , 33-C ) :   1.3331 B( 32-C , 41-H ) :   0.9513 B( 32-C , 45-N ) :   1.4511
B( 33-C , 34-C ) :   1.4849 B( 33-C , 64-H ) :   0.9829 B( 34-C , 35-C ) :   1.2907
B( 34-C , 42-H ) :   0.9863 B( 35-C , 52-C ) :   1.1335 B( 36-C , 40-C ) :   1.3444
B( 36-C , 50-N ) :   1.2177 B( 37-C , 38-C ) :   1.3332 B( 37-C , 43-H ) :   0.9511
B( 37-C , 50-N ) :   1.4519 B( 38-C , 39-C ) :   1.4851 B( 38-C , 65-H ) :   0.9828
B( 39-C , 40-C ) :   1.2907 B( 39-C , 44-H ) :   0.9861 B( 40-C , 53-C ) :   1.1338
B( 45-N , 51-Ru) :   0.4306 B( 46-N , 51-Ru) :   0.4267 B( 47-N , 51-Ru) :   0.4276
B( 48-N , 51-Ru) :   0.4272 B( 49-N , 51-Ru) :   0.4288 B( 50-N , 51-Ru) :   0.4284
B( 52-C , 53-C ) :   1.6169 B( 52-C , 59-H ) :   1.0050 B( 53-C , 58-H ) :   1.0046
B( 54-C , 55-C ) :   1.6225 B( 54-C , 61-H ) :   1.0043 B( 55-C , 60-H ) :   1.0044
B( 56-C , 57-C ) :   1.6161 B( 56-C , 63-H ) :   1.0048 B( 57-C , 62-H ) :   1.0048
B( 66-C , 67-C ) :   1.9900 B( 66-C , 70-C ) :   1.0633 B( 67-C , 68-H ) :   0.9559
B( 67-C , 69-H ) :   0.9543 B( 70-C , 71-H ) :   0.9512 B( 70-C , 72-H ) :   0.9510
B( 70-C , 73-H ) :   0.9621

MP2 TOTAL ENERGY:    -1920.907833662 Eh

-----------------------------------------------------------------------------
         ABSORPTION SPECTRUM VIA TRANSITION ELECTRIC DIPOLE MOMENTS
-----------------------------------------------------------------------------
State   Energy    Wavelength  fosc         T2        TX        TY        TZ
        (cm-1)      (nm)                 (au**2)    (au)      (au)      (au)
-----------------------------------------------------------------------------
   1   30969.2    322.9   0.000417294   0.00444  -0.06584  -0.00709   0.00717
   2   31041.7    322.1   0.000318894   0.00338  -0.01526   0.05607  -0.00240
   3   32109.9    311.4   0.000047009   0.00048   0.01146   0.01870  -0.00096
   4   31517.1    317.3   0.145746260   1.52239   0.77225  -0.54572   0.79260
   5   29756.6    336.1   0.081924077   0.90637  -0.60718  -0.72875   0.08137
   6   30126.7    331.9   0.117681016   1.28597   0.88603  -0.63295  -0.31669
   7   31717.3    315.3   0.021118148   0.21920  -0.31571  -0.34268   0.04580
   8   31033.0    322.2   0.003526930   0.03742  -0.13756  -0.13382   0.02417
   9   31425.3    318.2   0.010875266   0.11393   0.28042  -0.18723   0.01551
  10   33720.6    296.6   0.004544185   0.04436   0.13085  -0.12342   0.10959
  11   34517.7    289.7   0.002682135   0.02558   0.06655   0.14507   0.01027
  12   35150.3    284.5   0.003734438   0.03498  -0.06965  -0.05555   0.16443
  13   31336.0    319.1   0.006767003   0.07109   0.01765   0.24206   0.11039
  14   31499.1    317.5   0.029048207   0.30360  -0.17736   0.45046  -0.26311
  15   31992.2    312.6   0.003979726   0.04095  -0.04402   0.17358  -0.09426
  16   30421.1    328.7   0.026740755   0.28938   0.02027  -0.42914   0.32375
  17   32183.9    310.7   0.010038295   0.10268  -0.11354   0.16489   0.25020
  18   32083.7    311.7   0.088179968   0.90482  -0.16503  -0.74260  -0.57107
  19   32565.2    307.1   0.285058136   2.88174  -0.46849  -1.38399   0.86420
  20   32379.2    308.8   0.321269795   3.26648  -1.40151   1.03955   0.47073
  21   36750.5    272.1   0.953332348   8.53997  -2.64461   0.47766  -1.14797
  22   32916.4    303.8   0.008584113   0.08585  -0.27147   0.01757   0.10886
  23   39034.9    256.2   0.455350402   3.84033  -0.94034  -1.66594   0.42514
  24   39959.1    250.3   1.480856217  12.20037  -0.59284  -0.42317  -3.41611
  25   35524.0    281.5   0.143111829   1.32626  -0.83103  -0.64769  -0.46492
  26   32887.6    304.1   0.035039949   0.35076  -0.38452   0.45033   0.01044
  27   33149.9    301.7   0.035269107   0.35026   0.53759   0.13916  -0.20466
  28   33635.6    297.3   0.028754306   0.28144  -0.48313  -0.20484  -0.07783
  29   34865.8    286.8   0.060525940   0.57150   0.12526  -0.67728  -0.31162
  30   36567.9    273.5   0.108992440   0.98123  -0.95534  -0.15465  -0.21129
  31   34005.0    294.1   0.022569467   0.21850  -0.38414   0.03311  -0.26428
  32   33614.9    297.5   0.003911304   0.03831   0.03968  -0.12399   0.14614
  33   34204.3    292.4   0.067617466   0.65081  -0.26942  -0.13164  -0.74893
  34   37277.6    268.3   0.016210410   0.14316  -0.06066   0.03122   0.37216
  35   37792.5    264.6   0.212930248   1.85484  -1.06304  -0.84723   0.08364
  36   41654.8    240.1   0.574791047   4.54277  -1.63203   1.24466   0.57453
  37   42648.3    234.5   0.151836572   1.17206   0.49729   0.86697  -0.41609
  38   45518.6    219.7   0.372313969   2.69275  -0.37782   1.30402  -0.92171
  39   44993.1    222.3   0.238619219   1.74596  -0.63138   0.49941   1.04781
  40   46059.1    217.1   0.192061109   1.37278  -0.99775  -0.37162  -0.48905

FINAL SINGLE POINT ENERGY     -1918.843152379396

DIPOLE MOMENT
-------------
                                X             Y             Z
Electronic contribution:     35.82625      -1.76491      19.81335
Nuclear contribution   :    -34.75061       1.93911     -19.30544
                        -----------------------------------------
Total Dipole Moment    :      1.07565       0.17420       0.50791
                        -----------------------------------------
Magnitude (a.u.)       :      1.20222
Magnitude (Debye)      :      3.05580

Rotational constants in cm-1:     0.002931     0.002526     0.002104
Rotational constants in MHz :    87.864409    75.721626    63.072758

                             ****ORCA TERMINATED NORMALLY****
TOTAL RUN TIME: 0 days 2 hours 17 minutes 11 seconds 524 msec
