                         Program Version 5.0.4 -  RELEASE  -
|  1> %maxcore 6000
|  2> %pal
|  3>  nprocs 8
|  4> end
|  5> ! RI-SCS-PBE-QIDH def2-SVP def2/J def2-SVP/C RIJCOSX CPCM TIGHTSCF
|  6>
|  7> %TDDFT
|  8>     DCORR      4
|  9>     NROOTS    40
| 10>     doscs true
| 11>     TDA       FALSE
| 12> END
| 13>
| 14> %CPCM
| 15>     SMD		TRUE
| 16>     SMDsolvent	"DMF"
| 17> END
| 18>
| 19> * xyz 2 1
| 20> C                  -1.67762600   -2.06917600    0.26663300
| 21> C                  -2.41976900   -0.35506600   -1.10525600
| 22> C                  -3.64054900   -1.01297700   -1.38146000
| 23> C                  -3.83977500   -2.26012400   -0.78603600
| 24> C                  -2.86017500   -2.81414300    0.05348900
| 25> C                  -0.64603500   -2.57041500    1.10931800
| 26> C                   1.44308500   -2.22864100    2.05449600
| 27> C                   1.37107100   -3.45610900    2.72594600
| 28> C                   0.25377000   -4.25800100    2.57879900
| 29> C                  -0.79899200   -3.82255400    1.74914100
| 30> H                  -2.20348800    0.61917600   -1.54629500
| 31> H                  -4.75670000   -2.82685600   -0.95693900
| 32> H                   2.31664400   -1.58092100    2.16092700
| 33> H                   2.20519900   -3.76067100    3.35881600
| 34> H                   0.17640700   -5.21804400    3.09326600
| 35> C                  -0.67339700    2.70837900   -0.05312000
| 36> C                   0.28364100    2.10199200   -2.07678600
| 37> C                  -0.06962300    3.33263900   -2.64593400
| 38> C                  -0.74150200    4.27374300   -1.88863600
| 39> C                  -1.06092100    3.97552600   -0.54795300
| 40> C                  -0.98229700    2.33684100    1.28747800
| 41> C                  -0.86513200    0.71554500    2.94084800
| 42> C                  -1.52816500    1.55169900    3.84900700
| 43> C                  -1.93001300    2.81414400    3.45518900
| 44> C                  -1.66090300    3.24064700    2.13824800
| 45> H                   0.81430900    1.34564600   -2.66004600
| 46> H                   0.19565500    3.52842800   -3.68531800
| 47> H                  -1.02608800    5.23987000   -2.31036100
| 48> H                  -0.54138600   -0.28590700    3.23440100
| 49> H                  -1.72009400    1.18704000    4.85864000
| 50> H                  -2.45085000    3.48178900    4.14451300
| 51> C                   3.23412000    0.19880600   -0.22862400
| 52> C                   2.68339500    1.39646100    1.67891500
| 53> C                   4.02351900    1.75439600    1.87621500
| 54> C                   4.99043500    1.31827600    0.98984900
| 55> C                   4.60716500    0.51520700   -0.10406100
| 56> C                   2.77992400   -0.61361700   -1.30748600
| 57> C                   0.98382300   -1.63523300   -2.36009000
| 58> C                   1.82485800   -2.15757100   -3.35148700
| 59> C                   3.18147600   -1.89533500   -3.31194000
| 60> C                   3.69765300   -1.10225100   -2.26646500
| 61> H                   1.90544100    1.73094300    2.36951600
| 62> H                   6.04067700    1.58549700    1.12343700
| 63> H                  -0.09133400   -1.82982300   -2.37615000
| 64> H                   3.85546200   -2.29168000   -4.07407900
| 65> N                   2.29071800    0.63576100    0.65528400
| 66> N                   0.46103900   -1.78766600    1.26545600
| 67> N                  -0.59313200    1.09239100    1.69009600
| 68> N                  -1.47103100   -0.85747600   -0.31699100
| 69> N                  -0.01102000    1.78870800   -0.81332900
| 70> N                   1.44226000   -0.87808700   -1.36144800
| 71> Ru                  0.36080900   -0.00017200    0.18929900
| 72> C                   5.51802000    0.00759000   -1.08472300
| 73> C                   5.08178500   -0.76686700   -2.12215900
| 74> C                  -2.00317200   -4.56431000    1.51982500
| 75> C                  -2.99008000   -4.08297000    0.70778800
| 76> C                  -2.03492300    4.52072000    1.61867400
| 77> C                  -1.75019700    4.87194600    0.32958100
| 78> H                   5.78528600   -1.14774300   -2.86536700
| 79> H                   6.57648500    0.25619200   -0.98346900
| 80> H                  -3.90321000   -4.65855900    0.54243700
| 81> H                  -2.11475400   -5.53118100    2.01503300
| 82> H                  -2.04404200    5.84954600   -0.05820200
| 83> H                  -2.55962000    5.21304700    2.28029100
| 84> H                   4.28251500    2.37741300    2.73292400
| 85> H                   1.39050900   -2.76799900   -4.14390000
| 86> C                  -4.63221300   -0.36219000   -2.26657700
| 87> C                  -5.80902100   -0.94423200   -2.56200300
| 88> H                  -6.10834500   -1.92100400   -2.17663300
| 89> H                  -6.52586300   -0.44316400   -3.21675100
| 90> C                  -4.28434800    0.98137800   -2.82737800
| 91> H                  -4.09873700    1.72172300   -2.03314000
| 92> H                  -3.36834600    0.94781100   -3.43802900
| 93> H                  -5.09264700    1.36665600   -3.45976600
| 94> *
| 95>
| 96>                          ****END OF INPUT****

CARTESIAN COORDINATES (ANGSTROEM)
---------------------------------
  C     -1.677626   -2.069176    0.266633
  C     -2.419769   -0.355066   -1.105256
  C     -3.640549   -1.012977   -1.381460
  C     -3.839775   -2.260124   -0.786036
  C     -2.860175   -2.814143    0.053489
  C     -0.646035   -2.570415    1.109318
  C      1.443085   -2.228641    2.054496
  C      1.371071   -3.456109    2.725946
  C      0.253770   -4.258001    2.578799
  C     -0.798992   -3.822554    1.749141
  H     -2.203488    0.619176   -1.546295
  H     -4.756700   -2.826856   -0.956939
  H      2.316644   -1.580921    2.160927
  H      2.205199   -3.760671    3.358816
  H      0.176407   -5.218044    3.093266
  C     -0.673397    2.708379   -0.053120
  C      0.283641    2.101992   -2.076786
  C     -0.069623    3.332639   -2.645934
  C     -0.741502    4.273743   -1.888636
  C     -1.060921    3.975526   -0.547953
  C     -0.982297    2.336841    1.287478
  C     -0.865132    0.715545    2.940848
  C     -1.528165    1.551699    3.849007
  C     -1.930013    2.814144    3.455189
  C     -1.660903    3.240647    2.138248
  H      0.814309    1.345646   -2.660046
  H      0.195655    3.528428   -3.685318
  H     -1.026088    5.239870   -2.310361
  H     -0.541386   -0.285907    3.234401
  H     -1.720094    1.187040    4.858640
  H     -2.450850    3.481789    4.144513
  C      3.234120    0.198806   -0.228624
  C      2.683395    1.396461    1.678915
  C      4.023519    1.754396    1.876215
  C      4.990435    1.318276    0.989849
  C      4.607165    0.515207   -0.104061
  C      2.779924   -0.613617   -1.307486
  C      0.983823   -1.635233   -2.360090
  C      1.824858   -2.157571   -3.351487
  C      3.181476   -1.895335   -3.311940
  C      3.697653   -1.102251   -2.266465
  H      1.905441    1.730943    2.369516
  H      6.040677    1.585497    1.123437
  H     -0.091334   -1.829823   -2.376150
  H      3.855462   -2.291680   -4.074079
  N      2.290718    0.635761    0.655284
  N      0.461039   -1.787666    1.265456
  N     -0.593132    1.092391    1.690096
  N     -1.471031   -0.857476   -0.316991
  N     -0.011020    1.788708   -0.813329
  N      1.442260   -0.878087   -1.361448
  Ru     0.360809   -0.000172    0.189299
  C      5.518020    0.007590   -1.084723
  C      5.081785   -0.766867   -2.122159
  C     -2.003172   -4.564310    1.519825
  C     -2.990080   -4.082970    0.707788
  C     -2.034923    4.520720    1.618674
  C     -1.750197    4.871946    0.329581
  H      5.785286   -1.147743   -2.865367
  H      6.576485    0.256192   -0.983469
  H     -3.903210   -4.658559    0.542437
  H     -2.114754   -5.531181    2.015033
  H     -2.044042    5.849546   -0.058202
  H     -2.559620    5.213047    2.280291
  H      4.282515    2.377413    2.732924
  H      1.390509   -2.767999   -4.143900
  C     -4.632213   -0.362190   -2.266577
  C     -5.809021   -0.944232   -2.562003
  H     -6.108345   -1.921004   -2.176633
  H     -6.525863   -0.443164   -3.216751
  C     -4.284348    0.981378   -2.827378
  H     -4.098737    1.721723   -2.033140
  H     -3.368346    0.947811   -3.438029
  H     -5.092647    1.366656   -3.459766

 Total Charge           Charge          ....    2
 Multiplicity           Mult            ....    1
 Number of Electrons    NEL             ....  318
 Basis Dimension        Dim             ....  801

ORBITAL ENERGIES
----------------

  NO   OCC          E(Eh)            E(eV)
   0   2.0000     -15.150971      -412.2789
   1   2.0000     -15.150900      -412.2769
   2   2.0000     -15.150698      -412.2715
   3   2.0000     -15.150682      -412.2710
   4   2.0000     -15.150611      -412.2691
   5   2.0000     -15.150496      -412.2660
   6   2.0000     -10.900854      -296.6273
   7   2.0000     -10.900568      -296.6195
   8   2.0000     -10.900269      -296.6114
   9   2.0000     -10.900100      -296.6068
  10   2.0000     -10.899825      -296.5993
  11   2.0000     -10.898891      -296.5739
  12   2.0000     -10.898560      -296.5649
  13   2.0000     -10.898248      -296.5564
  14   2.0000     -10.898194      -296.5549
  15   2.0000     -10.897969      -296.5488
  16   2.0000     -10.897920      -296.5475
  17   2.0000     -10.897387      -296.5330
  18   2.0000     -10.871193      -295.8202
  19   2.0000     -10.870972      -295.8142
  20   2.0000     -10.870907      -295.8124
  21   2.0000     -10.870836      -295.8105
  22   2.0000     -10.870820      -295.8101
  23   2.0000     -10.870741      -295.8079
  24   2.0000     -10.870382      -295.7981
  25   2.0000     -10.870182      -295.7927
  26   2.0000     -10.870100      -295.7905
  27   2.0000     -10.870055      -295.7892
  28   2.0000     -10.870010      -295.7880
  29   2.0000     -10.869913      -295.7854
  30   2.0000     -10.867373      -295.7163
  31   2.0000     -10.855427      -295.3912
  32   2.0000     -10.855347      -295.3890
  33   2.0000     -10.855290      -295.3874
  34   2.0000     -10.855262      -295.3867
  35   2.0000     -10.855155      -295.3838
  36   2.0000     -10.855112      -295.3826
  37   2.0000     -10.855009      -295.3798
  38   2.0000     -10.854991      -295.3793
  39   2.0000     -10.854291      -295.3603
  40   2.0000     -10.854211      -295.3581
  41   2.0000     -10.854209      -295.3580
  42   2.0000     -10.851991      -295.2977
  43   2.0000     -10.828979      -294.6715
  44   2.0000     -10.820510      -294.4410
  45   2.0000      -3.335904       -90.7746
  46   2.0000      -2.085228       -56.7419
  47   2.0000      -2.084912       -56.7333
  48   2.0000      -2.078292       -56.5532
  49   2.0000      -1.206760       -32.8376
  50   2.0000      -1.199473       -32.6393
  51   2.0000      -1.199218       -32.6324
  52   2.0000      -1.170166       -31.8418
  53   2.0000      -1.169607       -31.8266
  54   2.0000      -1.169362       -31.8200
  55   2.0000      -1.062391       -28.9091
  56   2.0000      -1.060087       -28.8464
  57   2.0000      -1.059956       -28.8429
  58   2.0000      -1.035201       -28.1692
  59   2.0000      -1.012702       -27.5570
  60   2.0000      -1.012446       -27.5500
  61   2.0000      -1.010979       -27.5101
  62   2.0000      -1.007808       -27.4239
  63   2.0000      -1.007555       -27.4170
  64   2.0000      -0.977505       -26.5993
  65   2.0000      -0.942246       -25.6398
  66   2.0000      -0.941949       -25.6317
  67   2.0000      -0.938959       -25.5504
  68   2.0000      -0.938056       -25.5258
  69   2.0000      -0.937644       -25.5146
  70   2.0000      -0.927441       -25.2370
  71   2.0000      -0.855483       -23.2789
  72   2.0000      -0.836455       -22.7611
  73   2.0000      -0.835166       -22.7260
  74   2.0000      -0.834795       -22.7159
  75   2.0000      -0.820058       -22.3149
  76   2.0000      -0.819517       -22.3002
  77   2.0000      -0.816897       -22.2289
  78   2.0000      -0.810772       -22.0622
  79   2.0000      -0.810515       -22.0552
  80   2.0000      -0.808995       -22.0139
  81   2.0000      -0.774247       -21.0683
  82   2.0000      -0.772453       -21.0195
  83   2.0000      -0.771999       -21.0072
  84   2.0000      -0.724844       -19.7240
  85   2.0000      -0.711061       -19.3490
  86   2.0000      -0.709524       -19.3071
  87   2.0000      -0.705710       -19.2034
  88   2.0000      -0.693701       -18.8766
  89   2.0000      -0.692557       -18.8454
  90   2.0000      -0.673186       -18.3183
  91   2.0000      -0.672289       -18.2939
  92   2.0000      -0.670192       -18.2369
  93   2.0000      -0.669939       -18.2300
  94   2.0000      -0.631715       -17.1899
  95   2.0000      -0.629613       -17.1327
  96   2.0000      -0.628852       -17.1119
  97   2.0000      -0.628469       -17.1015
  98   2.0000      -0.627510       -17.0754
  99   2.0000      -0.622209       -16.9312
 100   2.0000      -0.616244       -16.7689
 101   2.0000      -0.615865       -16.7585
 102   2.0000      -0.614131       -16.7113
 103   2.0000      -0.585285       -15.9264
 104   2.0000      -0.584562       -15.9067
 105   2.0000      -0.581914       -15.8347
 106   2.0000      -0.579546       -15.7702
 107   2.0000      -0.569005       -15.4834
 108   2.0000      -0.568515       -15.4701
 109   2.0000      -0.568113       -15.4591
 110   2.0000      -0.563610       -15.3366
 111   2.0000      -0.563392       -15.3307
 112   2.0000      -0.558847       -15.2070
 113   2.0000      -0.558133       -15.1876
 114   2.0000      -0.557411       -15.1679
 115   2.0000      -0.546028       -14.8582
 116   2.0000      -0.544504       -14.8167
 117   2.0000      -0.542310       -14.7570
 118   2.0000      -0.540667       -14.7123
 119   2.0000      -0.537927       -14.6377
 120   2.0000      -0.534902       -14.5554
 121   2.0000      -0.534367       -14.5409
 122   2.0000      -0.531390       -14.4599
 123   2.0000      -0.526188       -14.3183
 124   2.0000      -0.519473       -14.1356
 125   2.0000      -0.513027       -13.9602
 126   2.0000      -0.510491       -13.8912
 127   2.0000      -0.499234       -13.5849
 128   2.0000      -0.495596       -13.4858
 129   2.0000      -0.489632       -13.3236
 130   2.0000      -0.486687       -13.2434
 131   2.0000      -0.485015       -13.1979
 132   2.0000      -0.478909       -13.0318
 133   2.0000      -0.462692       -12.5905
 134   2.0000      -0.461613       -12.5611
 135   2.0000      -0.461074       -12.5465
 136   2.0000      -0.459729       -12.5099
 137   2.0000      -0.455457       -12.3936
 138   2.0000      -0.452341       -12.3088
 139   2.0000      -0.450231       -12.2514
 140   2.0000      -0.430924       -11.7260
 141   2.0000      -0.429709       -11.6930
 142   2.0000      -0.421967       -11.4823
 143   2.0000      -0.419467       -11.4143
 144   2.0000      -0.412608       -11.2276
 145   2.0000      -0.405698       -11.0396
 146   2.0000      -0.402624       -10.9560
 147   2.0000      -0.398053       -10.8316
 148   2.0000      -0.396230       -10.7820
 149   2.0000      -0.355515        -9.6741
 150   2.0000      -0.332555        -9.0493
 151   2.0000      -0.332142        -9.0381
 152   2.0000      -0.327498        -8.9117
 153   2.0000      -0.322677        -8.7805
 154   2.0000      -0.315620        -8.5885
 155   2.0000      -0.308137        -8.3848
 156   2.0000      -0.298136        -8.1127
 157   2.0000      -0.294057        -8.0017
 158   2.0000      -0.292245        -7.9524
 159   0.0000      -0.030040        -0.8174
 160   0.0000      -0.022795        -0.6203
 161   0.0000      -0.021217        -0.5773
 162   0.0000      -0.016136        -0.4391
 163   0.0000      -0.011805        -0.3212

MULLIKEN ATOMIC CHARGES
-----------------------
   0 C :    0.211718
   1 C :    0.204354
   2 C :   -0.088522
   3 C :    0.085652
   4 C :   -0.128480
   5 C :    0.211255
   6 C :    0.192054
   7 C :   -0.109178
   8 C :    0.087714
   9 C :   -0.134197
  10 H :    0.131978
  11 H :    0.090400
  12 H :    0.136201
  13 H :    0.102079
  14 H :    0.098353
  15 C :    0.209973
  16 C :    0.191598
  17 C :   -0.104741
  18 C :    0.085189
  19 C :   -0.129642
  20 C :    0.212352
  21 C :    0.191448
  22 C :   -0.107576
  23 C :    0.086392
  24 C :   -0.132439
  25 H :    0.137279
  26 H :    0.102199
  27 H :    0.099086
  28 H :    0.137016
  29 H :    0.102487
  30 H :    0.099080
  31 C :    0.213293
  32 C :    0.191896
  33 C :   -0.107764
  34 C :    0.087272
  35 C :   -0.131745
  36 C :    0.211088
  37 C :    0.191020
  38 C :   -0.108395
  39 C :    0.087923
  40 C :   -0.133979
  41 H :    0.137318
  42 H :    0.098623
  43 H :    0.137868
  44 H :    0.098657
  45 N :   -0.475284
  46 N :   -0.473645
  47 N :   -0.474905
  48 N :   -0.474004
  49 N :   -0.479713
  50 N :   -0.475741
  51 Ru:    0.785294
  52 C :    0.004363
  53 C :    0.004363
  54 C :    0.006699
  55 C :    0.002605
  56 C :    0.003644
  57 C :    0.004506
  58 H :    0.085255
  59 H :    0.085390
  60 H :    0.085916
  61 H :    0.084897
  62 H :    0.085882
  63 H :    0.086159
  64 H :    0.102164
  65 H :    0.102216
  66 C :   -0.204318
  67 C :   -0.122678
  68 H :    0.093810
  69 H :    0.089492
  70 C :   -0.015947
  71 H :    0.083782
  72 H :    0.083956
  73 H :    0.071688
Sum of atomic charges:    2.0000000

LOEWDIN ATOMIC CHARGES
----------------------
   0 C :    0.054127
   1 C :    0.111000
   2 C :   -0.043444
   3 C :    0.062151
   4 C :   -0.033976
   5 C :    0.055880
   6 C :    0.109088
   7 C :   -0.038912
   8 C :    0.052354
   9 C :   -0.035269
  10 H :    0.057203
  11 H :    0.061950
  12 H :    0.062170
  13 H :    0.062309
  14 H :    0.064399
  15 C :    0.055464
  16 C :    0.109668
  17 C :   -0.038082
  18 C :    0.052896
  19 C :   -0.034924
  20 C :    0.055794
  21 C :    0.109510
  22 C :   -0.038374
  23 C :    0.052645
  24 C :   -0.035052
  25 H :    0.062257
  26 H :    0.062549
  27 H :    0.064567
  28 H :    0.062220
  29 H :    0.062507
  30 H :    0.064473
  31 C :    0.055833
  32 C :    0.109409
  33 C :   -0.038490
  34 C :    0.052357
  35 C :   -0.035270
  36 C :    0.055788
  37 C :    0.109473
  38 C :   -0.038413
  39 C :    0.052536
  40 C :   -0.035345
  41 H :    0.062302
  42 H :    0.064345
  43 H :    0.062384
  44 H :    0.064421
  45 N :    0.047612
  46 N :    0.046194
  47 N :    0.046969
  48 N :    0.052142
  49 N :    0.047080
  50 N :    0.047144
  51 Ru:   -0.588947
  52 C :   -0.006807
  53 C :   -0.007030
  54 C :   -0.007527
  55 C :   -0.006285
  56 C :   -0.006695
  57 C :   -0.007011
  58 H :    0.058405
  59 H :    0.058373
  60 H :    0.058203
  61 H :    0.058354
  62 H :    0.058516
  63 H :    0.058527
  64 H :    0.062426
  65 H :    0.062472
  66 C :   -0.042179
  67 C :   -0.052044
  68 H :    0.037407
  69 H :    0.040504
  70 C :   -0.053756
  71 H :    0.042892
  72 H :    0.042924
  73 H :    0.041660

  Mayer bond orders larger than 0.100000
B(  0-C ,  4-C ) :   1.3266 B(  0-C ,  5-C ) :   1.1923 B(  0-C , 48-N ) :   1.1927
B(  1-C ,  2-C ) :   1.3239 B(  1-C , 10-H ) :   0.9525 B(  1-C , 48-N ) :   1.4333
B(  2-C ,  3-C ) :   1.4526 B(  2-C , 66-C ) :   1.0026 B(  3-C ,  4-C ) :   1.3383
B(  3-C , 11-H ) :   0.9807 B(  4-C , 55-C ) :   1.1384 B(  5-C ,  9-C ) :   1.3420
B(  5-C , 46-N ) :   1.1866 B(  6-C ,  7-C ) :   1.3387 B(  6-C , 12-H ) :   0.9544
B(  6-C , 46-N ) :   1.4291 B(  7-C ,  8-C ) :   1.4828 B(  7-C , 13-H ) :   0.9813
B(  8-C ,  9-C ) :   1.2980 B(  8-C , 14-H ) :   0.9825 B(  9-C , 54-C ) :   1.1410
B( 15-C , 19-C ) :   1.3435 B( 15-C , 20-C ) :   1.1948 B( 15-C , 49-N ) :   1.1823
B( 16-C , 17-C ) :   1.3394 B( 16-C , 25-H ) :   0.9534 B( 16-C , 49-N ) :   1.4279
B( 17-C , 18-C ) :   1.4835 B( 17-C , 26-H ) :   0.9823 B( 18-C , 19-C ) :   1.2925
B( 18-C , 27-H ) :   0.9836 B( 19-C , 57-C ) :   1.1462 B( 20-C , 24-C ) :   1.3441
B( 20-C , 47-N ) :   1.1837 B( 21-C , 22-C ) :   1.3373 B( 21-C , 28-H ) :   0.9535
B( 21-C , 47-N ) :   1.4313 B( 22-C , 23-C ) :   1.4865 B( 22-C , 29-H ) :   0.9813
B( 23-C , 24-C ) :   1.2924 B( 23-C , 30-H ) :   0.9832 B( 24-C , 56-C ) :   1.1466
B( 31-C , 35-C ) :   1.3435 B( 31-C , 36-C ) :   1.1944 B( 31-C , 45-N ) :   1.1832
B( 32-C , 33-C ) :   1.3377 B( 32-C , 41-H ) :   0.9534 B( 32-C , 45-N ) :   1.4299
B( 33-C , 34-C ) :   1.4862 B( 33-C , 64-H ) :   0.9814 B( 34-C , 35-C ) :   1.2931
B( 34-C , 42-H ) :   0.9831 B( 35-C , 52-C ) :   1.1462 B( 36-C , 40-C ) :   1.3432
B( 36-C , 50-N ) :   1.1843 B( 37-C , 38-C ) :   1.3379 B( 37-C , 43-H ) :   0.9533
B( 37-C , 50-N ) :   1.4311 B( 38-C , 39-C ) :   1.4866 B( 38-C , 65-H ) :   0.9813
B( 39-C , 40-C ) :   1.2932 B( 39-C , 44-H ) :   0.9829 B( 40-C , 53-C ) :   1.1466
B( 45-N , 51-Ru) :   0.3886 B( 46-N , 51-Ru) :   0.3848 B( 47-N , 51-Ru) :   0.3857
B( 48-N , 51-Ru) :   0.3854 B( 49-N , 51-Ru) :   0.3867 B( 50-N , 51-Ru) :   0.3862
B( 52-C , 53-C ) :   1.6210 B( 52-C , 59-H ) :   1.0006 B( 53-C , 58-H ) :   1.0003
B( 54-C , 55-C ) :   1.6265 B( 54-C , 61-H ) :   1.0000 B( 55-C , 60-H ) :   1.0001
B( 56-C , 57-C ) :   1.6201 B( 56-C , 63-H ) :   1.0004 B( 57-C , 62-H ) :   1.0004
B( 66-C , 67-C ) :   1.9743 B( 66-C , 70-C ) :   1.0453 B( 67-C , 68-H ) :   0.9581
B( 67-C , 69-H ) :   0.9568 B( 70-C , 71-H ) :   0.9558 B( 70-C , 72-H ) :   0.9554
B( 70-C , 73-H ) :   0.9662

MP2 TOTAL ENERGY:    -1922.089919539 Eh

-----------------------------------------------------------------------------
         ABSORPTION SPECTRUM VIA TRANSITION ELECTRIC DIPOLE MOMENTS
-----------------------------------------------------------------------------
State   Energy    Wavelength  fosc         T2        TX        TY        TZ
        (cm-1)      (nm)                 (au**2)    (au)      (au)      (au)
-----------------------------------------------------------------------------
   1   30843.4    324.2   0.000446098   0.00476   0.06696   0.01537  -0.00648
   2   30905.0    323.6   0.000390734   0.00416   0.02849  -0.05780   0.00316
   3   32062.3    311.9   0.000058359   0.00060  -0.01506  -0.01905  -0.00309
   4   28531.2    350.5   0.140440431   1.62049  -0.76087   0.59536  -0.82892
   5   25355.2    394.4   0.086941725   1.12885  -0.69594  -0.80056   0.06013
   6   25671.9    389.5   0.121621593   1.55965   0.98124  -0.69541  -0.33649
   7   26228.1    381.3   0.008169958   0.10255   0.23715   0.21263  -0.03317
   8   27617.7    362.1   0.017448367   0.20799  -0.33231  -0.30952   0.04192
   9   26284.9    380.4   0.010705908   0.13409  -0.27131   0.24297  -0.03804
  10   26925.9    371.4   0.005102336   0.06238  -0.19060   0.13342  -0.09085
  11   29291.5    341.4   0.001253354   0.01409  -0.01567   0.11764  -0.00161
  12   23997.2    416.7   0.005534998   0.07593  -0.15716   0.21331   0.07571
  13   26706.5    374.4   0.029267404   0.36078  -0.11349   0.44393  -0.38836
  14   35508.5    281.6   0.005431195   0.05035   0.20392   0.06632   0.06614
  15   30815.5    324.5   0.003097947   0.03310   0.13926   0.04966   0.10600
  16   30352.4    329.5   0.006633880   0.07195   0.06041   0.08971  -0.24547
  17   29128.1    343.3   0.023990060   0.27114  -0.28055  -0.43163   0.07825
  18   27545.7    363.0   0.066096381   0.78995   0.02504  -0.49645  -0.73679
  19   28873.9    346.3   0.216942876   2.47352  -0.40348  -1.37880   0.64003
  20   28711.6    348.3   0.568398626   6.51734  -2.32382   1.03882  -0.19512
  21   32270.6    309.9   0.436574622   4.45376   1.66063  -0.10062   1.29844
  22   27428.9    364.6   0.010692548   0.12834  -0.05385  -0.33863   0.10375
  23   35054.7    285.3   0.463872251   4.35640  -1.13281  -1.69208   0.45825
  24   30540.7    327.4   0.015978147   0.17224  -0.38339   0.12632   0.09639
  25   26900.0    371.7   0.057660541   0.70567   0.12419  -0.27344  -0.78452
  26   25405.5    393.6   0.001995228   0.02585   0.08157  -0.00385  -0.13851
  27   35509.0    281.6   1.132134959  10.49628  -0.49911  -0.33464  -3.18358
  28   28189.7    354.7   0.227235559   2.65376  -0.90217  -0.66438  -1.18256
  29   26169.7    382.1   0.057188228   0.71942   0.68421  -0.49218  -0.09507
  30   26240.7    381.1   0.008284877   0.10394  -0.09044  -0.13120   0.28026
  31   29562.4    338.3   0.006697389   0.07458  -0.18947  -0.19633  -0.01178
  32   27402.1    364.9   0.006276623   0.07541  -0.23525  -0.09842  -0.10187
  33   27910.3    358.3   0.016406981   0.19353  -0.25259  -0.04625  -0.35719
  34   30528.2    327.6   0.088280547   0.95201   0.79313   0.53426   0.19368
  35   37116.7    269.4   0.073917174   0.65562   0.66190   0.43987  -0.15496
  36   37005.8    270.2   0.401553939   3.57232   1.43904  -1.11861  -0.50019
  37   38418.1    260.3   0.099867964   0.85579  -0.51874  -0.66078   0.38739
  38   40423.4    247.4   0.003887118   0.03166   0.00106   0.17214   0.04498
  39   40610.7    246.2   0.215270545   1.74510  -0.39106   1.02831  -0.73126
  40   41177.3    242.9   0.001258753   0.01006   0.06411  -0.06400   0.04310

FINAL SINGLE POINT ENERGY     -1919.515841539136

DIPOLE MOMENT
-------------
                                X             Y             Z
Electronic contribution:     35.80369      -1.76154      19.80034
Nuclear contribution   :    -34.75061       1.93911     -19.30544
                        -----------------------------------------
Total Dipole Moment    :      1.05309       0.17757       0.49490
                        -----------------------------------------
Magnitude (a.u.)       :      1.17705
Magnitude (Debye)      :      2.99183

Rotational constants in cm-1:     0.002931     0.002526     0.002104
Rotational constants in MHz :    87.864409    75.721626    63.072758

                             ****ORCA TERMINATED NORMALLY****
TOTAL RUN TIME: 0 days 2 hours 11 minutes 24 seconds 512 msec
