                         Program Version 5.0.4 -  RELEASE  -
|  1> %maxcore 8000
|  2> %pal
|  3>  nprocs 8
|  4> end
|  5> ! RI-SOS-wPBEPP86 def2-SVP def2/J def2-SVP/C RIJCOSX CPCM TIGHTSCF
|  6>
|  7> %TDDFT
|  8>     DCORR     1
|  9>     NROOTS    40
| 10>     doscs     TRUE
| 11>     TDA       FALSE
| 12> END
| 13>
| 14> %CPCM
| 15>     SMD		TRUE
| 16>     SMDsolvent	"Acetonitrile"
| 17> END
| 18>
| 19> * xyz 0 1
| 20> Au                 -4.55610900   -0.00065700   -0.00742000
| 21> C                  -7.22581000    1.19989100    0.00366500
| 22> C                  -7.22686800   -1.19841200    0.02526000
| 23> C                  -8.62468400   -1.21246900    0.03707300
| 24> C                  -9.30875400    0.00179600    0.03062700
| 25> C                  -8.62362200    1.21536500    0.01368300
| 26> C                  -6.31258900    2.35092900   -0.01260700
| 27> C                  -4.91233800    2.08377800   -0.02103800
| 28> C                  -4.03073100    3.16317200   -0.03755100
| 29> C                  -4.50455500    4.48040500   -0.04537200
| 30> C                  -5.87658500    4.73454900   -0.03628100
| 31> C                  -6.77911900    3.67397100   -0.01984200
| 32> H                  -9.16746500   -2.15763800    0.05044200
| 33> H                 -10.40062400    0.00235800    0.03897900
| 34> H                  -9.16557800    2.16109200    0.00852800
| 35> H                  -2.95037500    2.98720800   -0.04490100
| 36> H                  -3.79628400    5.31345200   -0.05864300
| 37> H                  -6.24576900    5.76258400   -0.04220600
| 38> H                  -7.85301400    3.87861300   -0.01305900
| 39> C                  -6.31470300   -2.35038600    0.02780500
| 40> C                  -6.78246400   -3.67289900    0.04490100
| 41> C                  -4.91422200   -2.08473900    0.01291500
| 42> C                  -5.88092600   -4.73444300    0.04796700
| 43> H                  -7.85653800   -3.87638500    0.05631300
| 44> C                  -4.03362600   -3.16507900    0.01645300
| 45> C                  -4.50866400   -4.48178700    0.03387300
| 46> H                  -6.25106000   -5.76206300    0.06165200
| 47> H                  -2.95310100   -2.99029000    0.00606400
| 48> H                  -3.80115700   -5.31558400    0.03662800
| 49> N                  -6.60305800    0.00041700    0.00940600
| 50> C                  -2.57853500   -0.00180100   -0.01843800
| 51> C                  -1.34813500   -0.00248200   -0.02012500
| 52> C                   0.07667200   -0.00330700   -0.01956400
| 53> C                   0.80462800    0.81994600   -0.90326900
| 54> C                   0.80171100   -0.82692900    0.86626300
| 55> C                   2.19301300    0.81303300   -0.90817700
| 56> H                   0.26577800    1.46052700   -1.60480400
| 57> C                   2.18999800   -0.81962500    0.87629500
| 58> H                   0.26045900   -1.46745900    1.56599600
| 59> C                   2.90003800   -0.00291800   -0.01440900
| 60> H                   2.73833300    1.43568700   -1.62033400
| 61> H                   2.73277800   -1.44197600    1.59065300
| 62> C                   5.13017900   -1.12972200   -0.01493000
| 63> C                   5.12780800    1.12811300    0.00198500
| 64> C                   4.79428800   -2.48486500   -0.07171500
| 65> C                   6.48497100   -0.72070100   -0.00576700
| 66> C                   4.78862900    2.48255700    0.05565000
| 67> C                   6.48344900    0.72182400    0.00655100
| 68> C                   5.83116500   -3.41123200   -0.09215700
| 69> H                   3.75484700   -2.81707200   -0.10659600
| 70> C                   7.50720400   -1.68032400   -0.02511400
| 71> C                   5.82336700    3.41101000    0.08704100
| 72> H                   3.74821700    2.81265700    0.07988500
| 73> C                   7.50347700    1.68350800    0.03675600
| 74> C                   7.19623400   -3.04103700   -0.06189600
| 75> H                   5.56919400   -4.47217500   -0.13525100
| 76> H                   8.54544900   -1.34193300   -0.01524400
| 77> C                   7.18941600    3.04358200    0.07083200
| 78> H                   5.55884300    4.47141000    0.12773300
| 79> H                   8.54243700    1.34717700    0.03758300
| 80> N                   4.31049800   -0.00165500   -0.01068900
| 81> C                   8.25679100    4.14021400    0.09477500
| 82> C                   8.26601200   -4.13550300   -0.07468100
| 83> C                   8.11580700   -4.98114700   -1.34421600
| 84> H                   8.87453700   -5.77843600   -1.37196300
| 85> H                   7.13068800   -5.46648600   -1.40458300
| 86> H                   8.24218200   -4.37042000   -2.25119600
| 87> C                   9.67632800   -3.55430600   -0.04457300
| 88> H                  10.41917600   -4.36540600   -0.05285800
| 89> H                   9.88104100   -2.91615600   -0.91706500
| 90> H                   9.85868800   -2.95468300    0.85966600
| 91> C                   8.08535600   -5.03588800    1.15279500
| 92> H                   8.18763600   -4.46526500    2.08849800
| 93> H                   7.09971300   -5.52383800    1.16691700
| 94> H                   8.84456400   -5.83315000    1.16517000
| 95> C                   8.09064200    4.98676200    1.36171900
| 96> H                   8.84784700    5.78517900    1.39748400
| 97> H                   7.10424100    5.47080600    1.41025900
| 98> H                   8.20740200    4.37706200    2.27067500
| 99> C                   9.66852100    3.56183200    0.08113200
|100> H                   9.86237900    2.96192500   -0.82051900
|101> H                  10.40959800    4.37443100    0.09724200
|102> H                   9.86451800    2.92471300    0.95638000
|103> C                   8.08812900    5.03904600   -1.13554000
|104> H                   8.20281700    4.46782900   -2.06943900
|105> H                   7.10140500    5.52432100   -1.16162900
|106> H                   8.84534900    5.83828400   -1.13983900
|107> *
|108>
|109>                          ****END OF INPUT****

CARTESIAN COORDINATES (ANGSTROEM)
---------------------------------
  Au    -4.556109   -0.000657   -0.007420
  C     -7.225810    1.199891    0.003665
  C     -7.226868   -1.198412    0.025260
  C     -8.624684   -1.212469    0.037073
  C     -9.308754    0.001796    0.030627
  C     -8.623622    1.215365    0.013683
  C     -6.312589    2.350929   -0.012607
  C     -4.912338    2.083778   -0.021038
  C     -4.030731    3.163172   -0.037551
  C     -4.504555    4.480405   -0.045372
  C     -5.876585    4.734549   -0.036281
  C     -6.779119    3.673971   -0.019842
  H     -9.167465   -2.157638    0.050442
  H    -10.400624    0.002358    0.038979
  H     -9.165578    2.161092    0.008528
  H     -2.950375    2.987208   -0.044901
  H     -3.796284    5.313452   -0.058643
  H     -6.245769    5.762584   -0.042206
  H     -7.853014    3.878613   -0.013059
  C     -6.314703   -2.350386    0.027805
  C     -6.782464   -3.672899    0.044901
  C     -4.914222   -2.084739    0.012915
  C     -5.880926   -4.734443    0.047967
  H     -7.856538   -3.876385    0.056313
  C     -4.033626   -3.165079    0.016453
  C     -4.508664   -4.481787    0.033873
  H     -6.251060   -5.762063    0.061652
  H     -2.953101   -2.990290    0.006064
  H     -3.801157   -5.315584    0.036628
  N     -6.603058    0.000417    0.009406
  C     -2.578535   -0.001801   -0.018438
  C     -1.348135   -0.002482   -0.020125
  C      0.076672   -0.003307   -0.019564
  C      0.804628    0.819946   -0.903269
  C      0.801711   -0.826929    0.866263
  C      2.193013    0.813033   -0.908177
  H      0.265778    1.460527   -1.604804
  C      2.189998   -0.819625    0.876295
  H      0.260459   -1.467459    1.565996
  C      2.900038   -0.002918   -0.014409
  H      2.738333    1.435687   -1.620334
  H      2.732778   -1.441976    1.590653
  C      5.130179   -1.129722   -0.014930
  C      5.127808    1.128113    0.001985
  C      4.794288   -2.484865   -0.071715
  C      6.484971   -0.720701   -0.005767
  C      4.788629    2.482557    0.055650
  C      6.483449    0.721824    0.006551
  C      5.831165   -3.411232   -0.092157
  H      3.754847   -2.817072   -0.106596
  C      7.507204   -1.680324   -0.025114
  C      5.823367    3.411010    0.087041
  H      3.748217    2.812657    0.079885
  C      7.503477    1.683508    0.036756
  C      7.196234   -3.041037   -0.061896
  H      5.569194   -4.472175   -0.135251
  H      8.545449   -1.341933   -0.015244
  C      7.189416    3.043582    0.070832
  H      5.558843    4.471410    0.127733
  H      8.542437    1.347177    0.037583
  N      4.310498   -0.001655   -0.010689
  C      8.256791    4.140214    0.094775
  C      8.266012   -4.135503   -0.074681
  C      8.115807   -4.981147   -1.344216
  H      8.874537   -5.778436   -1.371963
  H      7.130688   -5.466486   -1.404583
  H      8.242182   -4.370420   -2.251196
  C      9.676328   -3.554306   -0.044573
  H     10.419176   -4.365406   -0.052858
  H      9.881041   -2.916156   -0.917065
  H      9.858688   -2.954683    0.859666
  C      8.085356   -5.035888    1.152795
  H      8.187636   -4.465265    2.088498
  H      7.099713   -5.523838    1.166917
  H      8.844564   -5.833150    1.165170
  C      8.090642    4.986762    1.361719
  H      8.847847    5.785179    1.397484
  H      7.104241    5.470806    1.410259
  H      8.207402    4.377062    2.270675
  C      9.668521    3.561832    0.081132
  H      9.862379    2.961925   -0.820519
  H     10.409598    4.374431    0.097242
  H      9.864518    2.924713    0.956380
  C      8.088129    5.039046   -1.135540
  H      8.202817    4.467829   -2.069439
  H      7.101405    5.524321   -1.161629
  H      8.845349    5.838284   -1.139839

 Total Charge           Charge          ....    0
 Multiplicity           Mult            ....    1
 Number of Electrons    NEL             ....  342
 Basis Dimension        Dim             ....  885

ORBITAL ENERGIES
----------------

  NO   OCC          E(Eh)            E(eV)
   0   2.0000     -15.210006      -413.8853
   1   2.0000     -15.189383      -413.3241
   2   2.0000     -10.957930      -298.1804
   3   2.0000     -10.957915      -298.1800
   4   2.0000     -10.933658      -297.5200
   5   2.0000     -10.918601      -297.1102
   6   2.0000     -10.918581      -297.1097
   7   2.0000     -10.915208      -297.0179
   8   2.0000     -10.907782      -296.8158
   9   2.0000     -10.896811      -296.5173
  10   2.0000     -10.896802      -296.5171
  11   2.0000     -10.895772      -296.4890
  12   2.0000     -10.895756      -296.4886
  13   2.0000     -10.890186      -296.3370
  14   2.0000     -10.890166      -296.3365
  15   2.0000     -10.888388      -296.2881
  16   2.0000     -10.888348      -296.2870
  17   2.0000     -10.887396      -296.2611
  18   2.0000     -10.887392      -296.2610
  19   2.0000     -10.886031      -296.2240
  20   2.0000     -10.886016      -296.2235
  21   2.0000     -10.882680      -296.1328
  22   2.0000     -10.882679      -296.1327
  23   2.0000     -10.880657      -296.0777
  24   2.0000     -10.878785      -296.0268
  25   2.0000     -10.878662      -296.0234
  26   2.0000     -10.878661      -296.0234
  27   2.0000     -10.878275      -296.0129
  28   2.0000     -10.878092      -296.0079
  29   2.0000     -10.878076      -296.0075
  30   2.0000     -10.877054      -295.9797
  31   2.0000     -10.877052      -295.9796
  32   2.0000     -10.877026      -295.9789
  33   2.0000     -10.877018      -295.9787
  34   2.0000     -10.876702      -295.9701
  35   2.0000     -10.876674      -295.9693
  36   2.0000     -10.875861      -295.9472
  37   2.0000     -10.875856      -295.9471
  38   2.0000     -10.875054      -295.9253
  39   2.0000     -10.875050      -295.9252
  40   2.0000     -10.872148      -295.8462
  41   2.0000     -10.849767      -295.2372
  42   2.0000     -10.849759      -295.2369
  43   2.0000     -10.849707      -295.2355
  44   2.0000     -10.849701      -295.2354
  45   2.0000     -10.848612      -295.2057
  46   2.0000     -10.848609      -295.2057
  47   2.0000      -4.660346      -126.8145
  48   2.0000      -2.747686       -74.7683
  49   2.0000      -2.739062       -74.5337
  50   2.0000      -2.722774       -74.0905
  51   2.0000      -1.241378       -33.7796
  52   2.0000      -1.237446       -33.6726
  53   2.0000      -1.107812       -30.1451
  54   2.0000      -1.097197       -29.8562
  55   2.0000      -1.084266       -29.5044
  56   2.0000      -1.083461       -29.4825
  57   2.0000      -1.080396       -29.3991
  58   2.0000      -1.042975       -28.3808
  59   2.0000      -1.039338       -28.2818
  60   2.0000      -1.032176       -28.0869
  61   2.0000      -1.029432       -28.0123
  62   2.0000      -1.000154       -27.2156
  63   2.0000      -0.982251       -26.7284
  64   2.0000      -0.968729       -26.3605
  65   2.0000      -0.967137       -26.3171
  66   2.0000      -0.951600       -25.8943
  67   2.0000      -0.951531       -25.8925
  68   2.0000      -0.948128       -25.7999
  69   2.0000      -0.940195       -25.5840
  70   2.0000      -0.934356       -25.4251
  71   2.0000      -0.920591       -25.0506
  72   2.0000      -0.907294       -24.6887
  73   2.0000      -0.873053       -23.7570
  74   2.0000      -0.867651       -23.6100
  75   2.0000      -0.867649       -23.6099
  76   2.0000      -0.867452       -23.6046
  77   2.0000      -0.859148       -23.3786
  78   2.0000      -0.845001       -22.9936
  79   2.0000      -0.838604       -22.8196
  80   2.0000      -0.809805       -22.0359
  81   2.0000      -0.804393       -21.8886
  82   2.0000      -0.798225       -21.7208
  83   2.0000      -0.787925       -21.4405
  84   2.0000      -0.777506       -21.1570
  85   2.0000      -0.768870       -20.9220
  86   2.0000      -0.764193       -20.7947
  87   2.0000      -0.759104       -20.6563
  88   2.0000      -0.749094       -20.3839
  89   2.0000      -0.723489       -19.6871
  90   2.0000      -0.720261       -19.5993
  91   2.0000      -0.707015       -19.2389
  92   2.0000      -0.701974       -19.1017
  93   2.0000      -0.695746       -18.9322
  94   2.0000      -0.678699       -18.4683
  95   2.0000      -0.676105       -18.3978
  96   2.0000      -0.669567       -18.2198
  97   2.0000      -0.666060       -18.1244
  98   2.0000      -0.642342       -17.4790
  99   2.0000      -0.639599       -17.4044
 100   2.0000      -0.635313       -17.2877
 101   2.0000      -0.632515       -17.2116
 102   2.0000      -0.628768       -17.1096
 103   2.0000      -0.614255       -16.7147
 104   2.0000      -0.613429       -16.6923
 105   2.0000      -0.609849       -16.5948
 106   2.0000      -0.604893       -16.4600
 107   2.0000      -0.599798       -16.3213
 108   2.0000      -0.598969       -16.2988
 109   2.0000      -0.596569       -16.2335
 110   2.0000      -0.587087       -15.9754
 111   2.0000      -0.584280       -15.8991
 112   2.0000      -0.581651       -15.8275
 113   2.0000      -0.581133       -15.8134
 114   2.0000      -0.580736       -15.8026
 115   2.0000      -0.577286       -15.7087
 116   2.0000      -0.575780       -15.6678
 117   2.0000      -0.570333       -15.5196
 118   2.0000      -0.569800       -15.5051
 119   2.0000      -0.568008       -15.4563
 120   2.0000      -0.562336       -15.3019
 121   2.0000      -0.556586       -15.1455
 122   2.0000      -0.556005       -15.1297
 123   2.0000      -0.555751       -15.1227
 124   2.0000      -0.555657       -15.1202
 125   2.0000      -0.546403       -14.8684
 126   2.0000      -0.542097       -14.7512
 127   2.0000      -0.535768       -14.5790
 128   2.0000      -0.530428       -14.4337
 129   2.0000      -0.529993       -14.4218
 130   2.0000      -0.523081       -14.2338
 131   2.0000      -0.522396       -14.2151
 132   2.0000      -0.518028       -14.0963
 133   2.0000      -0.515936       -14.0393
 134   2.0000      -0.509887       -13.8747
 135   2.0000      -0.503291       -13.6953
 136   2.0000      -0.501894       -13.6572
 137   2.0000      -0.501739       -13.6530
 138   2.0000      -0.500557       -13.6208
 139   2.0000      -0.493068       -13.4171
 140   2.0000      -0.489129       -13.3099
 141   2.0000      -0.488091       -13.2816
 142   2.0000      -0.487115       -13.2551
 143   2.0000      -0.486098       -13.2274
 144   2.0000      -0.481604       -13.1051
 145   2.0000      -0.480200       -13.0669
 146   2.0000      -0.478934       -13.0325
 147   2.0000      -0.466922       -12.7056
 148   2.0000      -0.465086       -12.6556
 149   2.0000      -0.460394       -12.5280
 150   2.0000      -0.449587       -12.2339
 151   2.0000      -0.448918       -12.2157
 152   2.0000      -0.448890       -12.2149
 153   2.0000      -0.445065       -12.1108
 154   2.0000      -0.440369       -11.9830
 155   2.0000      -0.436389       -11.8748
 156   2.0000      -0.426091       -11.5945
 157   2.0000      -0.422803       -11.5051
 158   2.0000      -0.416570       -11.3355
 159   2.0000      -0.391610       -10.6563
 160   2.0000      -0.387174       -10.5355
 161   2.0000      -0.364569        -9.9204
 162   2.0000      -0.360661        -9.8141
 163   2.0000      -0.354748        -9.6532
 164   2.0000      -0.352779        -9.5996
 165   2.0000      -0.352701        -9.5975
 166   2.0000      -0.347716        -9.4618
 167   2.0000      -0.328535        -8.9399
 168   2.0000      -0.315321        -8.5803
 169   2.0000      -0.302536        -8.2324
 170   2.0000      -0.285979        -7.7819
 171   0.0000      -0.003079        -0.0838
 172   0.0000       0.020949         0.5700
 173   0.0000       0.042187         1.1480
 174   0.0000       0.046388         1.2623
 175   0.0000       0.054528         1.4838

MULLIKEN ATOMIC CHARGES
-----------------------
   0 Au:    0.686979
   1 C :    0.280199
   2 C :    0.280225
   3 C :   -0.120051
   4 C :    0.065994
   5 C :   -0.120055
   6 C :   -0.095484
   7 C :   -0.178537
   8 C :   -0.138830
   9 C :   -0.050022
  10 C :   -0.079077
  11 C :   -0.055794
  12 H :    0.107744
  13 H :    0.114208
  14 H :    0.107744
  15 H :    0.074237
  16 H :    0.091124
  17 H :    0.087778
  18 H :    0.090418
  19 C :   -0.095438
  20 C :   -0.055846
  21 C :   -0.178543
  22 C :   -0.079103
  23 H :    0.090425
  24 C :   -0.138848
  25 C :   -0.049983
  26 H :    0.087778
  27 H :    0.074244
  28 H :    0.091115
  29 N :   -0.540748
  30 C :   -0.278426
  31 C :   -0.090493
  32 C :   -0.118447
  33 C :   -0.022368
  34 C :   -0.022456
  35 C :   -0.071981
  36 H :    0.087983
  37 C :   -0.071911
  38 H :    0.087988
  39 C :    0.154377
  40 H :    0.095430
  41 H :    0.095429
  42 C :    0.213500
  43 C :    0.213544
  44 C :   -0.124294
  45 C :   -0.049022
  46 C :   -0.124329
  47 C :   -0.048928
  48 C :   -0.077919
  49 H :    0.076157
  50 C :   -0.082325
  51 C :   -0.077900
  52 H :    0.076126
  53 C :   -0.082317
  54 C :   -0.018745
  55 H :    0.084154
  56 H :    0.065986
  57 C :   -0.018781
  58 H :    0.084137
  59 H :    0.065980
  60 N :   -0.462873
  61 C :   -0.422381
  62 C :   -0.422424
  63 C :   -0.037610
  64 H :    0.061654
  65 H :    0.062596
  66 H :    0.060506
  67 C :   -0.021969
  68 H :    0.064547
  69 H :    0.064935
  70 H :    0.064850
  71 C :   -0.037097
  72 H :    0.060243
  73 H :    0.062367
  74 H :    0.061828
  75 C :   -0.037768
  76 H :    0.061641
  77 H :    0.062637
  78 H :    0.060510
  79 C :   -0.021991
  80 H :    0.064884
  81 H :    0.064554
  82 H :    0.064910
  83 C :   -0.036943
  84 H :    0.060239
  85 H :    0.062325
  86 H :    0.061831
Sum of atomic charges:   -0.0000000

LOEWDIN ATOMIC CHARGES
----------------------
   0 Au:    0.221603
   1 C :    0.100048
   2 C :    0.100054
   3 C :   -0.047840
   4 C :    0.056241
   5 C :   -0.047844
   6 C :   -0.069341
   7 C :   -0.142287
   8 C :   -0.047028
   9 C :   -0.022351
  10 C :   -0.047870
  11 C :   -0.013165
  12 H :    0.063140
  13 H :    0.068026
  14 H :    0.063139
  15 H :    0.046577
  16 H :    0.050652
  17 H :    0.050237
  18 H :    0.052787
  19 C :   -0.069340
  20 C :   -0.013166
  21 C :   -0.142283
  22 C :   -0.047873
  23 H :    0.052790
  24 C :   -0.047034
  25 C :   -0.022347
  26 H :    0.050237
  27 H :    0.046576
  28 H :    0.050651
  29 N :   -0.035094
  30 C :   -0.176252
  31 C :   -0.103885
  32 C :   -0.068425
  33 C :   -0.008370
  34 C :   -0.008334
  35 C :   -0.039139
  36 H :    0.055409
  37 C :   -0.039129
  38 H :    0.055409
  39 C :    0.027980
  40 H :    0.056425
  41 H :    0.056417
  42 C :    0.035488
  43 C :    0.035527
  44 C :   -0.067115
  45 C :   -0.065131
  46 C :   -0.067150
  47 C :   -0.065137
  48 C :   -0.031122
  49 H :    0.049875
  50 C :   -0.030939
  51 C :   -0.031113
  52 H :    0.049858
  53 C :   -0.030930
  54 C :   -0.042062
  55 H :    0.045492
  56 H :    0.046643
  57 C :   -0.042072
  58 H :    0.045489
  59 H :    0.046641
  60 N :   -0.024240
  61 C :   -0.062635
  62 C :   -0.062639
  63 C :   -0.052827
  64 H :    0.029476
  65 H :    0.028086
  66 H :    0.028790
  67 C :   -0.056978
  68 H :    0.032073
  69 H :    0.029287
  70 H :    0.029275
  71 C :   -0.052773
  72 H :    0.028737
  73 H :    0.028018
  74 H :    0.029472
  75 C :   -0.052839
  76 H :    0.029480
  77 H :    0.028091
  78 H :    0.028791
  79 C :   -0.056979
  80 H :    0.029271
  81 H :    0.032073
  82 H :    0.029291
  83 C :   -0.052762
  84 H :    0.028735
  85 H :    0.028012
  86 H :    0.029468

  Mayer bond orders larger than 0.100000
B(  0-Au,  7-C ) :   0.5722 B(  0-Au, 21-C ) :   0.5722 B(  0-Au, 29-N ) :   0.4398
B(  0-Au, 30-C ) :   0.7238 B(  1-C ,  5-C ) :   1.4317 B(  1-C ,  6-C ) :   1.0331
B(  1-C , 29-N ) :   1.2299 B(  2-C ,  3-C ) :   1.4317 B(  2-C , 19-C ) :   1.0331
B(  2-C , 29-N ) :   1.2299 B(  3-C ,  4-C ) :   1.4112 B(  3-C , 12-H ) :   0.9712
B(  4-C ,  5-C ) :   1.4113 B(  4-C , 13-H ) :   0.9725 B(  5-C , 14-H ) :   0.9712
B(  6-C ,  7-C ) :   1.3224 B(  6-C , 11-C ) :   1.4084 B(  7-C ,  8-C ) :   1.5009
B(  7-C , 21-C ) :   0.2198 B(  8-C ,  9-C ) :   1.3918 B(  8-C , 15-H ) :   0.9902
B(  9-C , 10-C ) :   1.3980 B(  9-C , 16-H ) :   0.9909 B( 10-C , 11-C ) :   1.4152
B( 10-C , 17-H ) :   0.9906 B( 11-C , 18-H ) :   0.9852 B( 19-C , 20-C ) :   1.4083
B( 19-C , 21-C ) :   1.3224 B( 20-C , 22-C ) :   1.4152 B( 20-C , 23-H ) :   0.9852
B( 21-C , 24-C ) :   1.5009 B( 22-C , 25-C ) :   1.3979 B( 22-C , 26-H ) :   0.9906
B( 24-C , 25-C ) :   1.3918 B( 24-C , 27-H ) :   0.9902 B( 25-C , 28-H ) :   0.9909
B( 30-C , 31-C ) :   3.0988 B( 31-C , 32-C ) :   0.9651 B( 32-C , 33-C ) :   1.3656
B( 32-C , 34-C ) :   1.3656 B( 33-C , 35-C ) :   1.4211 B( 33-C , 36-H ) :   0.9930
B( 34-C , 37-C ) :   1.4214 B( 34-C , 38-H ) :   0.9930 B( 35-C , 39-C ) :   1.3870
B( 35-C , 40-H ) :   0.9921 B( 37-C , 39-C ) :   1.3868 B( 37-C , 41-H ) :   0.9921
B( 39-C , 60-N ) :   0.9152 B( 42-C , 44-C ) :   1.3208 B( 42-C , 45-C ) :   1.3360
B( 42-C , 60-N ) :   1.0388 B( 43-C , 46-C ) :   1.3208 B( 43-C , 47-C ) :   1.3360
B( 43-C , 60-N ) :   1.0387 B( 44-C , 48-C ) :   1.4741 B( 44-C , 49-H ) :   1.0018
B( 45-C , 47-C ) :   1.1286 B( 45-C , 50-C ) :   1.3354 B( 46-C , 51-C ) :   1.4741
B( 46-C , 52-H ) :   1.0018 B( 47-C , 53-C ) :   1.3354 B( 48-C , 54-C ) :   1.3332
B( 48-C , 55-H ) :   0.9910 B( 50-C , 54-C ) :   1.4929 B( 50-C , 56-H ) :   0.9918
B( 51-C , 57-C ) :   1.3332 B( 51-C , 58-H ) :   0.9910 B( 53-C , 57-C ) :   1.4929
B( 53-C , 59-H ) :   0.9918 B( 54-C , 62-C ) :   0.9054 B( 57-C , 61-C ) :   0.9054
B( 61-C , 75-C ) :   1.0094 B( 61-C , 79-C ) :   1.0556 B( 61-C , 83-C ) :   1.0090
B( 62-C , 63-C ) :   1.0094 B( 62-C , 67-C ) :   1.0556 B( 62-C , 71-C ) :   1.0089
B( 63-C , 64-H ) :   0.9775 B( 63-C , 65-H ) :   0.9756 B( 63-C , 66-H ) :   0.9765
B( 67-C , 68-H ) :   0.9734 B( 67-C , 69-H ) :   0.9654 B( 67-C , 70-H ) :   0.9653
B( 71-C , 72-H ) :   0.9765 B( 71-C , 73-H ) :   0.9756 B( 71-C , 74-H ) :   0.9775
B( 75-C , 76-H ) :   0.9775 B( 75-C , 77-H ) :   0.9756 B( 75-C , 78-H ) :   0.9766
B( 79-C , 80-H ) :   0.9653 B( 79-C , 81-H ) :   0.9734 B( 79-C , 82-H ) :   0.9654
B( 83-C , 84-H ) :   0.9764 B( 83-C , 85-H ) :   0.9756 B( 83-C , 86-H ) :   0.9775

MP2 TOTAL ENERGY:    -1980.015327993 Eh

-----------------------------------------------------------------------------
         ABSORPTION SPECTRUM VIA TRANSITION ELECTRIC DIPOLE MOMENTS
-----------------------------------------------------------------------------
State   Energy    Wavelength  fosc         T2        TX        TY        TZ
        (cm-1)      (nm)                 (au**2)    (au)      (au)      (au)
-----------------------------------------------------------------------------
   1   28920.6    345.8   0.109590620   1.24750   0.00018  -1.11690   0.00578
   2   33841.9    295.5   1.032462916  10.04374   3.16918   0.00268   0.00223
   3   31833.5    314.1   0.000914522   0.00946  -0.09718  -0.00099  -0.00345
   4   36703.3    272.5   0.299189707   2.68359   1.63812  -0.00099  -0.01274
   5   37159.4    269.1   0.318321200   2.82015   0.00161  -1.67819  -0.06195
   6   34633.5    288.7   0.233929384   2.22363   1.49113   0.01327   0.00114
   7   34518.6    289.7   0.385399340   3.67564   0.01102  -1.91716  -0.00037
   8   35158.9    284.4   0.001551558   0.01453  -0.12046   0.00292   0.00282
   9   37913.6    263.8   0.248463186   2.15746  -0.01345   1.46793   0.04963
  10   35466.8    282.0   0.014006879   0.13002  -0.00346   0.33867  -0.12372
  11   42556.0    235.0   0.022563797   0.17455   0.41708   0.02434   0.00180
  12   41630.5    240.2   0.002758868   0.02182   0.14701   0.01428   0.00036
  13   39879.7    250.8   0.226381853   1.86881   0.00020  -1.36307  -0.10414
  14   42842.8    233.4   0.007386886   0.05676   0.23793  -0.01187  -0.00311
  15   41574.5    240.5   0.015655314   0.12397   0.35208  -0.00162  -0.00190
  16   39735.7    251.7   0.013257084   0.10984  -0.00245   0.31481  -0.10355
  17   42048.9    237.8   0.023994387   0.18786   0.00023  -0.42808  -0.06786
  18   44566.6    224.4   0.011414388   0.08432  -0.29037   0.00082   0.00092
  19   44440.0    225.0   0.255540020   1.89304   0.00130   1.37493  -0.05117
  20   44193.2    226.3   0.808283454   6.02121  -0.00298  -2.45375   0.01725
  21   43651.5    229.1   1.561571206  11.77710  -0.00111   3.42573   0.20368
  22   45529.1    219.6   0.740680636   5.35572  -2.31418   0.01165  -0.01186
  23   46013.6    217.3   0.163444103   1.16939  -0.02709  -1.01019   0.38493
  24   49210.2    203.2   0.016342397   0.10933   0.33064  -0.00035   0.00225
  25   47154.0    212.1   0.089726122   0.62644  -0.79133   0.01463  -0.00507
  26   46607.2    214.6   0.018731406   0.13231   0.04163   0.35427  -0.07121
  27   46713.2    214.1   0.288567815   2.03369  -0.00692   1.13079  -0.86888
  28   51590.2    193.8   0.021242195   0.13555   0.36817   0.00135  -0.00022
  29   50438.0    198.3   0.133298628   0.87005  -0.93273  -0.00647   0.00523
  30   45877.1    218.0   0.000178574   0.00128   0.03350   0.01138  -0.00545
  31   48285.6    207.1   0.009942154   0.06779  -0.00638  -0.23484   0.11223
  32   48776.0    205.0   0.345023792   2.32873   0.01189  -1.52558   0.03436
  33   48541.9    206.0   0.252173543   1.71025   1.30771   0.00720  -0.00972
  34   49793.3    200.8   0.145546819   0.96229  -0.98096   0.00088   0.00160
  35   50174.0    199.3   0.902749278   5.92330   2.43376   0.00694  -0.00713
  36   50265.8    198.9   0.994063987   6.51054   2.55152  -0.00473  -0.01660
  37   45367.2    220.4   0.010398758   0.07546   0.00341   0.24844   0.11715
  38   49737.6    201.1   0.009683212   0.06409   0.00578  -0.00975   0.25291
  39   47892.7    208.8   0.026813131   0.18431   0.00011  -0.42801   0.03347
  40   51591.8    193.8   0.061789877   0.39429  -0.62777   0.00434  -0.01294

FINAL SINGLE POINT ENERGY     -1976.398378798500

DIPOLE MOMENT
-------------
                                X             Y             Z
Electronic contribution:   -764.77835      -0.12557      -1.23392
Nuclear contribution   :    760.98124       0.12762       1.26625
                        -----------------------------------------
Total Dipole Moment    :     -3.79710       0.00205       0.03233
                        -----------------------------------------
Magnitude (a.u.)       :      3.79724
Magnitude (Debye)      :      9.65182

Rotational constants in cm-1:     0.003106     0.000590     0.000500
Rotational constants in MHz :    93.110247    17.673572    14.995213

                             ****ORCA TERMINATED NORMALLY****
TOTAL RUN TIME: 0 days 3 hours 13 minutes 25 seconds 596 msec
