                         Program Version 5.0.4 -  RELEASE  -
|  1> %maxcore 6000
|  2> %pal
|  3>  nprocs 8
|  4> end
|  5> ! RI-B2GP-PLYP def2-SVP def2/J def2-SVP/C RIJCOSX CPCM TIGHTSCF
|  6>
|  7> %TDDFT
|  8>     DCORR      4
|  9>     NROOTS    40
| 10>     TDA       FALSE
| 11> END
| 12>
| 13> %CPCM
| 14>     SMD		TRUE
| 15>     SMDsolvent	"Acetonitrile"
| 16> END
| 17>
| 18> * xyz 0 1
| 19> Au                 -4.55610900   -0.00065700   -0.00742000
| 20> C                  -7.22581000    1.19989100    0.00366500
| 21> C                  -7.22686800   -1.19841200    0.02526000
| 22> C                  -8.62468400   -1.21246900    0.03707300
| 23> C                  -9.30875400    0.00179600    0.03062700
| 24> C                  -8.62362200    1.21536500    0.01368300
| 25> C                  -6.31258900    2.35092900   -0.01260700
| 26> C                  -4.91233800    2.08377800   -0.02103800
| 27> C                  -4.03073100    3.16317200   -0.03755100
| 28> C                  -4.50455500    4.48040500   -0.04537200
| 29> C                  -5.87658500    4.73454900   -0.03628100
| 30> C                  -6.77911900    3.67397100   -0.01984200
| 31> H                  -9.16746500   -2.15763800    0.05044200
| 32> H                 -10.40062400    0.00235800    0.03897900
| 33> H                  -9.16557800    2.16109200    0.00852800
| 34> H                  -2.95037500    2.98720800   -0.04490100
| 35> H                  -3.79628400    5.31345200   -0.05864300
| 36> H                  -6.24576900    5.76258400   -0.04220600
| 37> H                  -7.85301400    3.87861300   -0.01305900
| 38> C                  -6.31470300   -2.35038600    0.02780500
| 39> C                  -6.78246400   -3.67289900    0.04490100
| 40> C                  -4.91422200   -2.08473900    0.01291500
| 41> C                  -5.88092600   -4.73444300    0.04796700
| 42> H                  -7.85653800   -3.87638500    0.05631300
| 43> C                  -4.03362600   -3.16507900    0.01645300
| 44> C                  -4.50866400   -4.48178700    0.03387300
| 45> H                  -6.25106000   -5.76206300    0.06165200
| 46> H                  -2.95310100   -2.99029000    0.00606400
| 47> H                  -3.80115700   -5.31558400    0.03662800
| 48> N                  -6.60305800    0.00041700    0.00940600
| 49> C                  -2.57853500   -0.00180100   -0.01843800
| 50> C                  -1.34813500   -0.00248200   -0.02012500
| 51> C                   0.07667200   -0.00330700   -0.01956400
| 52> C                   0.80462800    0.81994600   -0.90326900
| 53> C                   0.80171100   -0.82692900    0.86626300
| 54> C                   2.19301300    0.81303300   -0.90817700
| 55> H                   0.26577800    1.46052700   -1.60480400
| 56> C                   2.18999800   -0.81962500    0.87629500
| 57> H                   0.26045900   -1.46745900    1.56599600
| 58> C                   2.90003800   -0.00291800   -0.01440900
| 59> H                   2.73833300    1.43568700   -1.62033400
| 60> H                   2.73277800   -1.44197600    1.59065300
| 61> C                   5.13017900   -1.12972200   -0.01493000
| 62> C                   5.12780800    1.12811300    0.00198500
| 63> C                   4.79428800   -2.48486500   -0.07171500
| 64> C                   6.48497100   -0.72070100   -0.00576700
| 65> C                   4.78862900    2.48255700    0.05565000
| 66> C                   6.48344900    0.72182400    0.00655100
| 67> C                   5.83116500   -3.41123200   -0.09215700
| 68> H                   3.75484700   -2.81707200   -0.10659600
| 69> C                   7.50720400   -1.68032400   -0.02511400
| 70> C                   5.82336700    3.41101000    0.08704100
| 71> H                   3.74821700    2.81265700    0.07988500
| 72> C                   7.50347700    1.68350800    0.03675600
| 73> C                   7.19623400   -3.04103700   -0.06189600
| 74> H                   5.56919400   -4.47217500   -0.13525100
| 75> H                   8.54544900   -1.34193300   -0.01524400
| 76> C                   7.18941600    3.04358200    0.07083200
| 77> H                   5.55884300    4.47141000    0.12773300
| 78> H                   8.54243700    1.34717700    0.03758300
| 79> N                   4.31049800   -0.00165500   -0.01068900
| 80> C                   8.25679100    4.14021400    0.09477500
| 81> C                   8.26601200   -4.13550300   -0.07468100
| 82> C                   8.11580700   -4.98114700   -1.34421600
| 83> H                   8.87453700   -5.77843600   -1.37196300
| 84> H                   7.13068800   -5.46648600   -1.40458300
| 85> H                   8.24218200   -4.37042000   -2.25119600
| 86> C                   9.67632800   -3.55430600   -0.04457300
| 87> H                  10.41917600   -4.36540600   -0.05285800
| 88> H                   9.88104100   -2.91615600   -0.91706500
| 89> H                   9.85868800   -2.95468300    0.85966600
| 90> C                   8.08535600   -5.03588800    1.15279500
| 91> H                   8.18763600   -4.46526500    2.08849800
| 92> H                   7.09971300   -5.52383800    1.16691700
| 93> H                   8.84456400   -5.83315000    1.16517000
| 94> C                   8.09064200    4.98676200    1.36171900
| 95> H                   8.84784700    5.78517900    1.39748400
| 96> H                   7.10424100    5.47080600    1.41025900
| 97> H                   8.20740200    4.37706200    2.27067500
| 98> C                   9.66852100    3.56183200    0.08113200
| 99> H                   9.86237900    2.96192500   -0.82051900
|100> H                  10.40959800    4.37443100    0.09724200
|101> H                   9.86451800    2.92471300    0.95638000
|102> C                   8.08812900    5.03904600   -1.13554000
|103> H                   8.20281700    4.46782900   -2.06943900
|104> H                   7.10140500    5.52432100   -1.16162900
|105> H                   8.84534900    5.83828400   -1.13983900
|106> *
|107>
|108>                          ****END OF INPUT****

CARTESIAN COORDINATES (ANGSTROEM)
---------------------------------
  Au    -4.556109   -0.000657   -0.007420
  C     -7.225810    1.199891    0.003665
  C     -7.226868   -1.198412    0.025260
  C     -8.624684   -1.212469    0.037073
  C     -9.308754    0.001796    0.030627
  C     -8.623622    1.215365    0.013683
  C     -6.312589    2.350929   -0.012607
  C     -4.912338    2.083778   -0.021038
  C     -4.030731    3.163172   -0.037551
  C     -4.504555    4.480405   -0.045372
  C     -5.876585    4.734549   -0.036281
  C     -6.779119    3.673971   -0.019842
  H     -9.167465   -2.157638    0.050442
  H    -10.400624    0.002358    0.038979
  H     -9.165578    2.161092    0.008528
  H     -2.950375    2.987208   -0.044901
  H     -3.796284    5.313452   -0.058643
  H     -6.245769    5.762584   -0.042206
  H     -7.853014    3.878613   -0.013059
  C     -6.314703   -2.350386    0.027805
  C     -6.782464   -3.672899    0.044901
  C     -4.914222   -2.084739    0.012915
  C     -5.880926   -4.734443    0.047967
  H     -7.856538   -3.876385    0.056313
  C     -4.033626   -3.165079    0.016453
  C     -4.508664   -4.481787    0.033873
  H     -6.251060   -5.762063    0.061652
  H     -2.953101   -2.990290    0.006064
  H     -3.801157   -5.315584    0.036628
  N     -6.603058    0.000417    0.009406
  C     -2.578535   -0.001801   -0.018438
  C     -1.348135   -0.002482   -0.020125
  C      0.076672   -0.003307   -0.019564
  C      0.804628    0.819946   -0.903269
  C      0.801711   -0.826929    0.866263
  C      2.193013    0.813033   -0.908177
  H      0.265778    1.460527   -1.604804
  C      2.189998   -0.819625    0.876295
  H      0.260459   -1.467459    1.565996
  C      2.900038   -0.002918   -0.014409
  H      2.738333    1.435687   -1.620334
  H      2.732778   -1.441976    1.590653
  C      5.130179   -1.129722   -0.014930
  C      5.127808    1.128113    0.001985
  C      4.794288   -2.484865   -0.071715
  C      6.484971   -0.720701   -0.005767
  C      4.788629    2.482557    0.055650
  C      6.483449    0.721824    0.006551
  C      5.831165   -3.411232   -0.092157
  H      3.754847   -2.817072   -0.106596
  C      7.507204   -1.680324   -0.025114
  C      5.823367    3.411010    0.087041
  H      3.748217    2.812657    0.079885
  C      7.503477    1.683508    0.036756
  C      7.196234   -3.041037   -0.061896
  H      5.569194   -4.472175   -0.135251
  H      8.545449   -1.341933   -0.015244
  C      7.189416    3.043582    0.070832
  H      5.558843    4.471410    0.127733
  H      8.542437    1.347177    0.037583
  N      4.310498   -0.001655   -0.010689
  C      8.256791    4.140214    0.094775
  C      8.266012   -4.135503   -0.074681
  C      8.115807   -4.981147   -1.344216
  H      8.874537   -5.778436   -1.371963
  H      7.130688   -5.466486   -1.404583
  H      8.242182   -4.370420   -2.251196
  C      9.676328   -3.554306   -0.044573
  H     10.419176   -4.365406   -0.052858
  H      9.881041   -2.916156   -0.917065
  H      9.858688   -2.954683    0.859666
  C      8.085356   -5.035888    1.152795
  H      8.187636   -4.465265    2.088498
  H      7.099713   -5.523838    1.166917
  H      8.844564   -5.833150    1.165170
  C      8.090642    4.986762    1.361719
  H      8.847847    5.785179    1.397484
  H      7.104241    5.470806    1.410259
  H      8.207402    4.377062    2.270675
  C      9.668521    3.561832    0.081132
  H      9.862379    2.961925   -0.820519
  H     10.409598    4.374431    0.097242
  H      9.864518    2.924713    0.956380
  C      8.088129    5.039046   -1.135540
  H      8.202817    4.467829   -2.069439
  H      7.101405    5.524321   -1.161629
  H      8.845349    5.838284   -1.139839

 Total Charge           Charge          ....    0
 Multiplicity           Mult            ....    1
 Number of Electrons    NEL             ....  342
 Basis Dimension        Dim             ....  885

ORBITAL ENERGIES
----------------

  NO   OCC          E(Eh)            E(eV)
   0   2.0000     -15.097838      -410.8331
   1   2.0000     -15.079666      -410.3386
   2   2.0000     -10.864324      -295.6333
   3   2.0000     -10.864311      -295.6329
   4   2.0000     -10.840490      -294.9847
   5   2.0000     -10.825205      -294.5688
   6   2.0000     -10.825180      -294.5681
   7   2.0000     -10.823685      -294.5274
   8   2.0000     -10.815295      -294.2991
   9   2.0000     -10.806043      -294.0474
  10   2.0000     -10.806037      -294.0472
  11   2.0000     -10.802946      -293.9631
  12   2.0000     -10.802929      -293.9626
  13   2.0000     -10.798732      -293.8484
  14   2.0000     -10.798713      -293.8479
  15   2.0000     -10.796107      -293.7770
  16   2.0000     -10.796103      -293.7769
  17   2.0000     -10.794846      -293.7427
  18   2.0000     -10.794832      -293.7423
  19   2.0000     -10.792969      -293.6916
  20   2.0000     -10.792925      -293.6904
  21   2.0000     -10.792195      -293.6706
  22   2.0000     -10.792194      -293.6705
  23   2.0000     -10.788418      -293.5678
  24   2.0000     -10.788417      -293.5677
  25   2.0000     -10.786568      -293.5174
  26   2.0000     -10.786544      -293.5168
  27   2.0000     -10.786176      -293.5068
  28   2.0000     -10.786169      -293.5066
  29   2.0000     -10.786146      -293.5060
  30   2.0000     -10.786144      -293.5059
  31   2.0000     -10.785650      -293.4924
  32   2.0000     -10.785252      -293.4816
  33   2.0000     -10.784676      -293.4659
  34   2.0000     -10.784352      -293.4571
  35   2.0000     -10.784306      -293.4559
  36   2.0000     -10.783532      -293.4348
  37   2.0000     -10.783529      -293.4347
  38   2.0000     -10.782660      -293.4111
  39   2.0000     -10.782658      -293.4110
  40   2.0000     -10.778138      -293.2880
  41   2.0000     -10.763137      -292.8799
  42   2.0000     -10.763130      -292.8797
  43   2.0000     -10.763075      -292.8782
  44   2.0000     -10.763068      -292.8780
  45   2.0000     -10.761771      -292.8427
  46   2.0000     -10.761767      -292.8426
  47   2.0000      -4.580922      -124.6532
  48   2.0000      -2.677821       -72.8672
  49   2.0000      -2.669237       -72.6336
  50   2.0000      -2.652522       -72.1788
  51   2.0000      -1.172026       -31.8925
  52   2.0000      -1.168384       -31.7934
  53   2.0000      -1.040978       -28.3265
  54   2.0000      -1.030729       -28.0476
  55   2.0000      -1.018037       -27.7022
  56   2.0000      -1.017443       -27.6860
  57   2.0000      -1.014425       -27.6039
  58   2.0000      -0.978567       -26.6282
  59   2.0000      -0.974834       -26.5266
  60   2.0000      -0.967579       -26.3292
  61   2.0000      -0.965471       -26.2718
  62   2.0000      -0.936331       -25.4789
  63   2.0000      -0.918519       -24.9942
  64   2.0000      -0.905894       -24.6506
  65   2.0000      -0.904564       -24.6144
  66   2.0000      -0.889246       -24.1976
  67   2.0000      -0.889195       -24.1962
  68   2.0000      -0.885753       -24.1026
  69   2.0000      -0.877621       -23.8813
  70   2.0000      -0.872667       -23.7465
  71   2.0000      -0.858672       -23.3656
  72   2.0000      -0.845854       -23.0169
  73   2.0000      -0.814448       -22.1623
  74   2.0000      -0.809761       -22.0347
  75   2.0000      -0.809759       -22.0347
  76   2.0000      -0.809253       -22.0209
  77   2.0000      -0.799230       -21.7481
  78   2.0000      -0.785417       -21.3723
  79   2.0000      -0.778949       -21.1963
  80   2.0000      -0.751007       -20.4359
  81   2.0000      -0.745955       -20.2985
  82   2.0000      -0.739759       -20.1299
  83   2.0000      -0.730091       -19.8668
  84   2.0000      -0.719800       -19.5867
  85   2.0000      -0.711720       -19.3669
  86   2.0000      -0.706897       -19.2356
  87   2.0000      -0.702304       -19.1107
  88   2.0000      -0.692198       -18.8357
  89   2.0000      -0.667290       -18.1579
  90   2.0000      -0.663076       -18.0432
  91   2.0000      -0.650866       -17.7110
  92   2.0000      -0.646930       -17.6039
  93   2.0000      -0.640184       -17.4203
  94   2.0000      -0.623571       -16.9682
  95   2.0000      -0.621083       -16.9005
  96   2.0000      -0.614814       -16.7300
  97   2.0000      -0.611458       -16.6386
  98   2.0000      -0.588200       -16.0057
  99   2.0000      -0.584472       -15.9043
 100   2.0000      -0.581760       -15.8305
 101   2.0000      -0.579756       -15.7760
 102   2.0000      -0.574994       -15.6464
 103   2.0000      -0.561141       -15.2694
 104   2.0000      -0.556659       -15.1475
 105   2.0000      -0.556506       -15.1433
 106   2.0000      -0.551709       -15.0128
 107   2.0000      -0.548374       -14.9220
 108   2.0000      -0.547364       -14.8945
 109   2.0000      -0.543829       -14.7983
 110   2.0000      -0.533405       -14.5147
 111   2.0000      -0.533264       -14.5109
 112   2.0000      -0.530187       -14.4271
 113   2.0000      -0.530035       -14.4230
 114   2.0000      -0.529335       -14.4039
 115   2.0000      -0.526425       -14.3247
 116   2.0000      -0.524917       -14.2837
 117   2.0000      -0.519920       -14.1477
 118   2.0000      -0.518874       -14.1193
 119   2.0000      -0.516882       -14.0651
 120   2.0000      -0.511663       -13.9231
 121   2.0000      -0.505524       -13.7560
 122   2.0000      -0.505515       -13.7558
 123   2.0000      -0.503133       -13.6909
 124   2.0000      -0.500229       -13.6119
 125   2.0000      -0.496818       -13.5191
 126   2.0000      -0.487334       -13.2610
 127   2.0000      -0.486241       -13.2313
 128   2.0000      -0.480625       -13.0785
 129   2.0000      -0.479764       -13.0551
 130   2.0000      -0.474099       -12.9009
 131   2.0000      -0.472669       -12.8620
 132   2.0000      -0.468219       -12.7409
 133   2.0000      -0.466503       -12.6942
 134   2.0000      -0.460475       -12.5302
 135   2.0000      -0.455133       -12.3848
 136   2.0000      -0.455105       -12.3840
 137   2.0000      -0.449739       -12.2380
 138   2.0000      -0.447034       -12.1644
 139   2.0000      -0.445212       -12.1148
 140   2.0000      -0.441568       -12.0157
 141   2.0000      -0.441400       -12.0111
 142   2.0000      -0.440804       -11.9949
 143   2.0000      -0.439743       -11.9660
 144   2.0000      -0.432543       -11.7701
 145   2.0000      -0.431977       -11.7547
 146   2.0000      -0.430788       -11.7223
 147   2.0000      -0.418293       -11.3823
 148   2.0000      -0.416324       -11.3287
 149   2.0000      -0.409873       -11.1532
 150   2.0000      -0.403583       -10.9821
 151   2.0000      -0.402778       -10.9602
 152   2.0000      -0.401605       -10.9282
 153   2.0000      -0.398872       -10.8539
 154   2.0000      -0.395011       -10.7488
 155   2.0000      -0.390982       -10.6392
 156   2.0000      -0.377158       -10.2630
 157   2.0000      -0.374157       -10.1813
 158   2.0000      -0.367084        -9.9889
 159   2.0000      -0.343156        -9.3377
 160   2.0000      -0.338174        -9.2022
 161   2.0000      -0.318597        -8.6695
 162   2.0000      -0.314591        -8.5605
 163   2.0000      -0.308663        -8.3991
 164   2.0000      -0.306542        -8.3414
 165   2.0000      -0.306301        -8.3349
 166   2.0000      -0.302265        -8.2250
 167   2.0000      -0.283203        -7.7064
 168   2.0000      -0.272216        -7.4074
 169   2.0000      -0.259115        -7.0509
 170   2.0000      -0.242900        -6.6096
 171   0.0000      -0.017789        -0.4841
 172   0.0000       0.005448         0.1483
 173   0.0000       0.027047         0.7360
 174   0.0000       0.031320         0.8523
 175   0.0000       0.036133         0.9832

MULLIKEN ATOMIC CHARGES
-----------------------
   0 Au:    0.634289
   1 C :    0.274661
   2 C :    0.274690
   3 C :   -0.096650
   4 C :    0.104500
   5 C :   -0.096653
   6 C :   -0.052678
   7 C :   -0.156554
   8 C :   -0.109164
   9 C :   -0.011140
  10 C :   -0.035318
  11 C :   -0.043517
  12 H :    0.065792
  13 H :    0.071978
  14 H :    0.065791
  15 H :    0.035874
  16 H :    0.048303
  17 H :    0.044908
  18 H :    0.047895
  19 C :   -0.052638
  20 C :   -0.043561
  21 C :   -0.156564
  22 C :   -0.035343
  23 H :    0.047901
  24 C :   -0.109181
  25 C :   -0.011102
  26 H :    0.044908
  27 H :    0.035883
  28 H :    0.048295
  29 N :   -0.491675
  30 C :   -0.264878
  31 C :   -0.071293
  32 C :   -0.091483
  33 C :   -0.006445
  34 C :   -0.006532
  35 C :   -0.044409
  36 H :    0.044371
  37 C :   -0.044384
  38 H :    0.044387
  39 C :    0.173253
  40 H :    0.053160
  41 H :    0.053165
  42 C :    0.210465
  43 C :    0.210502
  44 C :   -0.114348
  45 C :   -0.003939
  46 C :   -0.114390
  47 C :   -0.003854
  48 C :   -0.054709
  49 H :    0.033717
  50 C :   -0.097008
  51 C :   -0.054691
  52 H :    0.033692
  53 C :   -0.096991
  54 C :    0.003462
  55 H :    0.044150
  56 H :    0.026902
  57 C :    0.003433
  58 H :    0.044136
  59 H :    0.026893
  60 N :   -0.393786
  61 C :   -0.343208
  62 C :   -0.343230
  63 C :    0.046409
  64 H :    0.025002
  65 H :    0.027543
  66 H :    0.024290
  67 C :    0.069623
  68 H :    0.026627
  69 H :    0.028596
  70 H :    0.028496
  71 C :    0.046891
  72 H :    0.024042
  73 H :    0.027285
  74 H :    0.025184
  75 C :    0.046251
  76 H :    0.024992
  77 H :    0.027587
  78 H :    0.024293
  79 C :    0.069602
  80 H :    0.028542
  81 H :    0.026634
  82 H :    0.028559
  83 C :    0.047041
  84 H :    0.024040
  85 H :    0.027240
  86 H :    0.025190
Sum of atomic charges:    0.0000000

LOEWDIN ATOMIC CHARGES
----------------------
   0 Au:    0.224215
   1 C :    0.099871
   2 C :    0.099877
   3 C :   -0.038974
   4 C :    0.059223
   5 C :   -0.038978
   6 C :   -0.062436
   7 C :   -0.137571
   8 C :   -0.039340
   9 C :   -0.015195
  10 C :   -0.039493
  11 C :   -0.006965
  12 H :    0.053795
  13 H :    0.057751
  14 H :    0.053795
  15 H :    0.037499
  16 H :    0.040472
  17 H :    0.040185
  18 H :    0.043341
  19 C :   -0.062434
  20 C :   -0.006966
  21 C :   -0.137567
  22 C :   -0.039495
  23 H :    0.043344
  24 C :   -0.039347
  25 C :   -0.015192
  26 H :    0.040185
  27 H :    0.037499
  28 H :    0.040471
  29 N :   -0.032660
  30 C :   -0.176204
  31 C :   -0.103922
  32 C :   -0.060889
  33 C :   -0.003526
  34 C :   -0.003487
  35 C :   -0.030804
  36 H :    0.045074
  37 C :   -0.030799
  38 H :    0.045076
  39 C :    0.031035
  40 H :    0.046850
  41 H :    0.046846
  42 C :    0.036820
  43 C :    0.036853
  44 C :   -0.060340
  45 C :   -0.059742
  46 C :   -0.060379
  47 C :   -0.059747
  48 C :   -0.025334
  49 H :    0.040317
  50 C :   -0.026770
  51 C :   -0.025325
  52 H :    0.040308
  53 C :   -0.026761
  54 C :   -0.036399
  55 H :    0.036154
  56 H :    0.037740
  57 C :   -0.036409
  58 H :    0.036152
  59 H :    0.037738
  60 N :   -0.017442
  61 C :   -0.052234
  62 C :   -0.052236
  63 C :   -0.031098
  64 H :    0.020227
  65 H :    0.019790
  66 H :    0.019745
  67 C :   -0.034581
  68 H :    0.022632
  69 H :    0.020575
  70 H :    0.020562
  71 C :   -0.031042
  72 H :    0.019702
  73 H :    0.019702
  74 H :    0.020225
  75 C :   -0.031111
  76 H :    0.020233
  77 H :    0.019795
  78 H :    0.019746
  79 C :   -0.034581
  80 H :    0.020560
  81 H :    0.022633
  82 H :    0.020576
  83 C :   -0.031032
  84 H :    0.019701
  85 H :    0.019696
  86 H :    0.020221

  Mayer bond orders larger than 0.100000
B(  0-Au,  7-C ) :   0.5805 B(  0-Au, 21-C ) :   0.5805 B(  0-Au, 29-N ) :   0.4497
B(  0-Au, 30-C ) :   0.7416 B(  1-C ,  5-C ) :   1.4149 B(  1-C ,  6-C ) :   1.0285
B(  1-C , 29-N ) :   1.2365 B(  2-C ,  3-C ) :   1.4149 B(  2-C , 19-C ) :   1.0285
B(  2-C , 29-N ) :   1.2365 B(  3-C ,  4-C ) :   1.3972 B(  3-C , 12-H ) :   0.9832
B(  4-C ,  5-C ) :   1.3972 B(  4-C , 13-H ) :   0.9795 B(  5-C , 14-H ) :   0.9832
B(  6-C ,  7-C ) :   1.3093 B(  6-C , 11-C ) :   1.3947 B(  7-C ,  8-C ) :   1.4803
B(  7-C , 21-C ) :   0.2248 B(  8-C ,  9-C ) :   1.3756 B(  8-C , 15-H ) :   0.9965
B(  9-C , 10-C ) :   1.3856 B(  9-C , 16-H ) :   0.9977 B( 10-C , 11-C ) :   1.4005
B( 10-C , 17-H ) :   0.9971 B( 11-C , 18-H ) :   0.9961 B( 19-C , 20-C ) :   1.3947
B( 19-C , 21-C ) :   1.3093 B( 20-C , 22-C ) :   1.4006 B( 20-C , 23-H ) :   0.9962
B( 21-C , 24-C ) :   1.4803 B( 22-C , 25-C ) :   1.3856 B( 22-C , 26-H ) :   0.9971
B( 24-C , 25-C ) :   1.3756 B( 24-C , 27-H ) :   0.9965 B( 25-C , 28-H ) :   0.9977
B( 30-C , 31-C ) :   2.9987 B( 31-C , 32-C ) :   0.9433 B( 32-C , 33-C ) :   1.3646
B( 32-C , 34-C ) :   1.3646 B( 33-C , 35-C ) :   1.4029 B( 33-C , 36-H ) :   1.0011
B( 34-C , 37-C ) :   1.4032 B( 34-C , 38-H ) :   1.0011 B( 35-C , 39-C ) :   1.3805
B( 35-C , 40-H ) :   1.0007 B( 37-C , 39-C ) :   1.3803 B( 37-C , 41-H ) :   1.0007
B( 39-C , 60-N ) :   0.9191 B( 42-C , 44-C ) :   1.3107 B( 42-C , 45-C ) :   1.3265
B( 42-C , 60-N ) :   1.0522 B( 43-C , 46-C ) :   1.3107 B( 43-C , 47-C ) :   1.3265
B( 43-C , 60-N ) :   1.0521 B( 44-C , 48-C ) :   1.4472 B( 44-C , 49-H ) :   1.0116
B( 45-C , 47-C ) :   1.1124 B( 45-C , 50-C ) :   1.3075 B( 46-C , 51-C ) :   1.4471
B( 46-C , 52-H ) :   1.0116 B( 47-C , 53-C ) :   1.3075 B( 48-C , 54-C ) :   1.3308
B( 48-C , 55-H ) :   0.9983 B( 50-C , 54-C ) :   1.4758 B( 50-C , 56-H ) :   1.0036
B( 51-C , 57-C ) :   1.3308 B( 51-C , 58-H ) :   0.9983 B( 53-C , 57-C ) :   1.4758
B( 53-C , 59-H ) :   1.0036 B( 54-C , 62-C ) :   0.9153 B( 57-C , 61-C ) :   0.9152
B( 61-C , 75-C ) :   1.0196 B( 61-C , 79-C ) :   1.0695 B( 61-C , 83-C ) :   1.0192
B( 62-C , 63-C ) :   1.0196 B( 62-C , 67-C ) :   1.0695 B( 62-C , 71-C ) :   1.0191
B( 63-C , 64-H ) :   0.9758 B( 63-C , 65-H ) :   0.9750 B( 63-C , 66-H ) :   0.9752
B( 67-C , 68-H ) :   0.9714 B( 67-C , 69-H ) :   0.9622 B( 67-C , 70-H ) :   0.9622
B( 71-C , 72-H ) :   0.9751 B( 71-C , 73-H ) :   0.9749 B( 71-C , 74-H ) :   0.9759
B( 75-C , 76-H ) :   0.9758 B( 75-C , 77-H ) :   0.9750 B( 75-C , 78-H ) :   0.9752
B( 79-C , 80-H ) :   0.9622 B( 79-C , 81-H ) :   0.9714 B( 79-C , 82-H ) :   0.9623
B( 83-C , 84-H ) :   0.9751 B( 83-C , 85-H ) :   0.9749 B( 83-C , 86-H ) :   0.9759

MP2 TOTAL ENERGY:    -1979.465041229 Eh

-----------------------------------------------------------------------------
         ABSORPTION SPECTRUM VIA TRANSITION ELECTRIC DIPOLE MOMENTS
-----------------------------------------------------------------------------
State   Energy    Wavelength  fosc         T2        TX        TY        TZ
        (cm-1)      (nm)                 (au**2)    (au)      (au)      (au)
-----------------------------------------------------------------------------
   1   29081.3    343.9   0.103778694   1.17482   0.00014  -1.08388   0.00562
   2   31446.9    318.0   0.767661793   8.03650   2.83487   0.00060   0.00142
   3   31878.8    313.7   0.097702656   1.00897  -1.00446  -0.00326  -0.00389
   4   36550.3    273.6   0.352976756   3.17929   1.78301  -0.00046  -0.01276
   5   32898.4    304.0   0.259083092   2.59263   1.61012   0.01197   0.00178
   6   37861.3    264.1   0.316063212   2.74824   0.00449  -1.65659  -0.06277
   7   35106.7    284.8   0.363587670   3.40953   0.00664  -1.84648  -0.00330
   8   36072.7    277.2   0.000062570   0.00057  -0.02274  -0.00644  -0.00350
   9   36982.9    270.4   0.158228783   1.40851  -0.00717   1.18564   0.05209
  10   35139.6    284.6   0.013976301   0.13094  -0.36119   0.01787  -0.01265
  11   36966.4    270.5   0.007584870   0.06755  -0.02172  -0.19428   0.17127
  12   38222.7    261.6   0.000074230   0.00064  -0.02444  -0.00648  -0.00027
  13   40433.0    247.3   0.001661565   0.01353  -0.11560  -0.01263  -0.00218
  14   34978.5    285.9   0.001329837   0.01252  -0.00014  -0.06677   0.08976
  15   38388.4    260.5   0.009839290   0.08438   0.29047  -0.00160  -0.00134
  16   39701.3    251.9   0.159001629   1.31848   0.00044  -1.14598  -0.07219
  17   40664.2    245.9   0.097274331   0.78752   0.88738  -0.00881  -0.00142
  18   41348.5    241.8   0.001427468   0.01137   0.00851  -0.09265  -0.05205
  19   42461.9    235.5   0.259084229   2.00871   0.00482   1.41595  -0.06132
  20   38720.5    258.3   0.264835499   2.25170  -0.00018  -1.49728  -0.09934
  21   41428.0    241.4   0.845852999   6.72166  -0.00109  -2.59260   0.00839
  22   43263.0    231.1   0.014189620   0.10798   0.30809  -0.11416  -0.00518
  23   38068.0    262.7   0.068829696   0.59524   0.04965   0.76893   0.03898
  24   41794.3    239.3   0.826542991   6.51064   0.00239  -2.54518  -0.18078
  25   43812.4    228.2   0.019583812   0.14716  -0.00045  -0.37737   0.06889
  26   44435.3    225.0   0.435819887   3.22890   1.79596  -0.05710   0.01345
  27   43970.3    227.4   0.323158815   2.41954   0.06073   1.54281  -0.18862
  28   43845.1    228.1   0.030083950   0.22589  -0.47495  -0.01720   0.00287
  29   42734.8    234.0   0.002634972   0.02030  -0.14239   0.00492   0.00024
  30   44060.1    227.0   0.182368439   1.36263   0.00346  -0.94322   0.68771
  31   44167.5    226.4   0.243406820   1.81429  -1.34671  -0.02503   0.00458
  32   45249.6    221.0   0.123270670   0.89685  -0.03013   0.94462   0.06025
  33   48830.7    204.8   0.002274194   0.01533  -0.12301   0.01300   0.00562
  34   46266.8    216.1   0.200507886   1.42672  -0.00687  -1.19443   0.00363
  35   46356.0    215.7   0.162327723   1.15282  -1.07366   0.00747   0.00405
  36   42019.0    238.0   0.000243562   0.00191   0.04368   0.00063  -0.00023
  37   49563.7    201.8   0.158107554   1.05018   1.02477   0.00274  -0.00448
  38   49958.8    200.2   0.259989220   1.71324  -1.30889   0.00596   0.00269
  39   49225.1    203.1   0.119106193   0.79657  -0.89249   0.00169   0.00594
  40   51232.0    195.2   0.957443974   6.15245   2.48040   0.00222  -0.00859

FINAL SINGLE POINT ENERGY     -1976.529738803717

DIPOLE MOMENT
-------------
                                X             Y             Z
Electronic contribution:   -764.77607      -0.12569      -1.23484
Nuclear contribution   :    760.98124       0.12762       1.26625
                        -----------------------------------------
Total Dipole Moment    :     -3.79483       0.00193       0.03141
                        -----------------------------------------
Magnitude (a.u.)       :      3.79496
Magnitude (Debye)      :      9.64601

Rotational constants in cm-1:     0.003106     0.000590     0.000500
Rotational constants in MHz :    93.110247    17.673572    14.995213

                             ****ORCA TERMINATED NORMALLY****
TOTAL RUN TIME: 0 days 3 hours 6 minutes 31 seconds 26 msec
