                         Program Version 5.0.4 -  RELEASE  -
|  1> %maxcore 6000
|  2> %pal
|  3>  nprocs 8
|  4> end
|  5> ! RI-B2PLYP def2-SVP def2/J def2-SVP/C RIJCOSX CPCM TIGHTSCF
|  6>
|  7> %TDDFT
|  8>     DCORR      4
|  9>     NROOTS    40
| 10>     TDA       FALSE
| 11> END
| 12>
| 13> %CPCM
| 14>     SMD		TRUE
| 15>     SMDsolvent	"Acetonitrile"
| 16> END
| 17>
| 18> * xyz 0 1
| 19> Au                 -4.55610900   -0.00065700   -0.00742000
| 20> C                  -7.22581000    1.19989100    0.00366500
| 21> C                  -7.22686800   -1.19841200    0.02526000
| 22> C                  -8.62468400   -1.21246900    0.03707300
| 23> C                  -9.30875400    0.00179600    0.03062700
| 24> C                  -8.62362200    1.21536500    0.01368300
| 25> C                  -6.31258900    2.35092900   -0.01260700
| 26> C                  -4.91233800    2.08377800   -0.02103800
| 27> C                  -4.03073100    3.16317200   -0.03755100
| 28> C                  -4.50455500    4.48040500   -0.04537200
| 29> C                  -5.87658500    4.73454900   -0.03628100
| 30> C                  -6.77911900    3.67397100   -0.01984200
| 31> H                  -9.16746500   -2.15763800    0.05044200
| 32> H                 -10.40062400    0.00235800    0.03897900
| 33> H                  -9.16557800    2.16109200    0.00852800
| 34> H                  -2.95037500    2.98720800   -0.04490100
| 35> H                  -3.79628400    5.31345200   -0.05864300
| 36> H                  -6.24576900    5.76258400   -0.04220600
| 37> H                  -7.85301400    3.87861300   -0.01305900
| 38> C                  -6.31470300   -2.35038600    0.02780500
| 39> C                  -6.78246400   -3.67289900    0.04490100
| 40> C                  -4.91422200   -2.08473900    0.01291500
| 41> C                  -5.88092600   -4.73444300    0.04796700
| 42> H                  -7.85653800   -3.87638500    0.05631300
| 43> C                  -4.03362600   -3.16507900    0.01645300
| 44> C                  -4.50866400   -4.48178700    0.03387300
| 45> H                  -6.25106000   -5.76206300    0.06165200
| 46> H                  -2.95310100   -2.99029000    0.00606400
| 47> H                  -3.80115700   -5.31558400    0.03662800
| 48> N                  -6.60305800    0.00041700    0.00940600
| 49> C                  -2.57853500   -0.00180100   -0.01843800
| 50> C                  -1.34813500   -0.00248200   -0.02012500
| 51> C                   0.07667200   -0.00330700   -0.01956400
| 52> C                   0.80462800    0.81994600   -0.90326900
| 53> C                   0.80171100   -0.82692900    0.86626300
| 54> C                   2.19301300    0.81303300   -0.90817700
| 55> H                   0.26577800    1.46052700   -1.60480400
| 56> C                   2.18999800   -0.81962500    0.87629500
| 57> H                   0.26045900   -1.46745900    1.56599600
| 58> C                   2.90003800   -0.00291800   -0.01440900
| 59> H                   2.73833300    1.43568700   -1.62033400
| 60> H                   2.73277800   -1.44197600    1.59065300
| 61> C                   5.13017900   -1.12972200   -0.01493000
| 62> C                   5.12780800    1.12811300    0.00198500
| 63> C                   4.79428800   -2.48486500   -0.07171500
| 64> C                   6.48497100   -0.72070100   -0.00576700
| 65> C                   4.78862900    2.48255700    0.05565000
| 66> C                   6.48344900    0.72182400    0.00655100
| 67> C                   5.83116500   -3.41123200   -0.09215700
| 68> H                   3.75484700   -2.81707200   -0.10659600
| 69> C                   7.50720400   -1.68032400   -0.02511400
| 70> C                   5.82336700    3.41101000    0.08704100
| 71> H                   3.74821700    2.81265700    0.07988500
| 72> C                   7.50347700    1.68350800    0.03675600
| 73> C                   7.19623400   -3.04103700   -0.06189600
| 74> H                   5.56919400   -4.47217500   -0.13525100
| 75> H                   8.54544900   -1.34193300   -0.01524400
| 76> C                   7.18941600    3.04358200    0.07083200
| 77> H                   5.55884300    4.47141000    0.12773300
| 78> H                   8.54243700    1.34717700    0.03758300
| 79> N                   4.31049800   -0.00165500   -0.01068900
| 80> C                   8.25679100    4.14021400    0.09477500
| 81> C                   8.26601200   -4.13550300   -0.07468100
| 82> C                   8.11580700   -4.98114700   -1.34421600
| 83> H                   8.87453700   -5.77843600   -1.37196300
| 84> H                   7.13068800   -5.46648600   -1.40458300
| 85> H                   8.24218200   -4.37042000   -2.25119600
| 86> C                   9.67632800   -3.55430600   -0.04457300
| 87> H                  10.41917600   -4.36540600   -0.05285800
| 88> H                   9.88104100   -2.91615600   -0.91706500
| 89> H                   9.85868800   -2.95468300    0.85966600
| 90> C                   8.08535600   -5.03588800    1.15279500
| 91> H                   8.18763600   -4.46526500    2.08849800
| 92> H                   7.09971300   -5.52383800    1.16691700
| 93> H                   8.84456400   -5.83315000    1.16517000
| 94> C                   8.09064200    4.98676200    1.36171900
| 95> H                   8.84784700    5.78517900    1.39748400
| 96> H                   7.10424100    5.47080600    1.41025900
| 97> H                   8.20740200    4.37706200    2.27067500
| 98> C                   9.66852100    3.56183200    0.08113200
| 99> H                   9.86237900    2.96192500   -0.82051900
|100> H                  10.40959800    4.37443100    0.09724200
|101> H                   9.86451800    2.92471300    0.95638000
|102> C                   8.08812900    5.03904600   -1.13554000
|103> H                   8.20281700    4.46782900   -2.06943900
|104> H                   7.10140500    5.52432100   -1.16162900
|105> H                   8.84534900    5.83828400   -1.13983900
|106> *
|107>
|108>                          ****END OF INPUT****

CARTESIAN COORDINATES (ANGSTROEM)
---------------------------------
  Au    -4.556109   -0.000657   -0.007420
  C     -7.225810    1.199891    0.003665
  C     -7.226868   -1.198412    0.025260
  C     -8.624684   -1.212469    0.037073
  C     -9.308754    0.001796    0.030627
  C     -8.623622    1.215365    0.013683
  C     -6.312589    2.350929   -0.012607
  C     -4.912338    2.083778   -0.021038
  C     -4.030731    3.163172   -0.037551
  C     -4.504555    4.480405   -0.045372
  C     -5.876585    4.734549   -0.036281
  C     -6.779119    3.673971   -0.019842
  H     -9.167465   -2.157638    0.050442
  H    -10.400624    0.002358    0.038979
  H     -9.165578    2.161092    0.008528
  H     -2.950375    2.987208   -0.044901
  H     -3.796284    5.313452   -0.058643
  H     -6.245769    5.762584   -0.042206
  H     -7.853014    3.878613   -0.013059
  C     -6.314703   -2.350386    0.027805
  C     -6.782464   -3.672899    0.044901
  C     -4.914222   -2.084739    0.012915
  C     -5.880926   -4.734443    0.047967
  H     -7.856538   -3.876385    0.056313
  C     -4.033626   -3.165079    0.016453
  C     -4.508664   -4.481787    0.033873
  H     -6.251060   -5.762063    0.061652
  H     -2.953101   -2.990290    0.006064
  H     -3.801157   -5.315584    0.036628
  N     -6.603058    0.000417    0.009406
  C     -2.578535   -0.001801   -0.018438
  C     -1.348135   -0.002482   -0.020125
  C      0.076672   -0.003307   -0.019564
  C      0.804628    0.819946   -0.903269
  C      0.801711   -0.826929    0.866263
  C      2.193013    0.813033   -0.908177
  H      0.265778    1.460527   -1.604804
  C      2.189998   -0.819625    0.876295
  H      0.260459   -1.467459    1.565996
  C      2.900038   -0.002918   -0.014409
  H      2.738333    1.435687   -1.620334
  H      2.732778   -1.441976    1.590653
  C      5.130179   -1.129722   -0.014930
  C      5.127808    1.128113    0.001985
  C      4.794288   -2.484865   -0.071715
  C      6.484971   -0.720701   -0.005767
  C      4.788629    2.482557    0.055650
  C      6.483449    0.721824    0.006551
  C      5.831165   -3.411232   -0.092157
  H      3.754847   -2.817072   -0.106596
  C      7.507204   -1.680324   -0.025114
  C      5.823367    3.411010    0.087041
  H      3.748217    2.812657    0.079885
  C      7.503477    1.683508    0.036756
  C      7.196234   -3.041037   -0.061896
  H      5.569194   -4.472175   -0.135251
  H      8.545449   -1.341933   -0.015244
  C      7.189416    3.043582    0.070832
  H      5.558843    4.471410    0.127733
  H      8.542437    1.347177    0.037583
  N      4.310498   -0.001655   -0.010689
  C      8.256791    4.140214    0.094775
  C      8.266012   -4.135503   -0.074681
  C      8.115807   -4.981147   -1.344216
  H      8.874537   -5.778436   -1.371963
  H      7.130688   -5.466486   -1.404583
  H      8.242182   -4.370420   -2.251196
  C      9.676328   -3.554306   -0.044573
  H     10.419176   -4.365406   -0.052858
  H      9.881041   -2.916156   -0.917065
  H      9.858688   -2.954683    0.859666
  C      8.085356   -5.035888    1.152795
  H      8.187636   -4.465265    2.088498
  H      7.099713   -5.523838    1.166917
  H      8.844564   -5.833150    1.165170
  C      8.090642    4.986762    1.361719
  H      8.847847    5.785179    1.397484
  H      7.104241    5.470806    1.410259
  H      8.207402    4.377062    2.270675
  C      9.668521    3.561832    0.081132
  H      9.862379    2.961925   -0.820519
  H     10.409598    4.374431    0.097242
  H      9.864518    2.924713    0.956380
  C      8.088129    5.039046   -1.135540
  H      8.202817    4.467829   -2.069439
  H      7.101405    5.524321   -1.161629
  H      8.845349    5.838284   -1.139839

 Total Charge           Charge          ....    0
 Multiplicity           Mult            ....    1
 Number of Electrons    NEL             ....  342
 Basis Dimension        Dim             ....  885

ORBITAL ENERGIES
----------------

  NO   OCC          E(Eh)            E(eV)
   0   2.0000     -14.910241      -405.7283
   1   2.0000     -14.893007      -405.2593
   2   2.0000     -10.703075      -291.2455
   3   2.0000     -10.703065      -291.2452
   4   2.0000     -10.680154      -290.6218
   5   2.0000     -10.664721      -290.2018
   6   2.0000     -10.664687      -290.2009
   7   2.0000     -10.663216      -290.1609
   8   2.0000     -10.655792      -289.9588
   9   2.0000     -10.647622      -289.7365
  10   2.0000     -10.647621      -289.7365
  11   2.0000     -10.643717      -289.6303
  12   2.0000     -10.643699      -289.6298
  13   2.0000     -10.638992      -289.5017
  14   2.0000     -10.638977      -289.5013
  15   2.0000     -10.636507      -289.4341
  16   2.0000     -10.636504      -289.4340
  17   2.0000     -10.635614      -289.4098
  18   2.0000     -10.635601      -289.4094
  19   2.0000     -10.633387      -289.3492
  20   2.0000     -10.633340      -289.3479
  21   2.0000     -10.632796      -289.3331
  22   2.0000     -10.632796      -289.3331
  23   2.0000     -10.629514      -289.2438
  24   2.0000     -10.629513      -289.2438
  25   2.0000     -10.627909      -289.2001
  26   2.0000     -10.627906      -289.2000
  27   2.0000     -10.627277      -289.1829
  28   2.0000     -10.627270      -289.1827
  29   2.0000     -10.627215      -289.1812
  30   2.0000     -10.627189      -289.1805
  31   2.0000     -10.626068      -289.1500
  32   2.0000     -10.625699      -289.1400
  33   2.0000     -10.625102      -289.1237
  34   2.0000     -10.624579      -289.1095
  35   2.0000     -10.624550      -289.1087
  36   2.0000     -10.623858      -289.0899
  37   2.0000     -10.623854      -289.0898
  38   2.0000     -10.623242      -289.0731
  39   2.0000     -10.623238      -289.0730
  40   2.0000     -10.618646      -288.9480
  41   2.0000     -10.604872      -288.5732
  42   2.0000     -10.604867      -288.5731
  43   2.0000     -10.604812      -288.5716
  44   2.0000     -10.604806      -288.5714
  45   2.0000     -10.603439      -288.5343
  46   2.0000     -10.603435      -288.5341
  47   2.0000      -4.489469      -122.1646
  48   2.0000      -2.609336       -71.0036
  49   2.0000      -2.600547       -70.7645
  50   2.0000      -2.582341       -70.2691
  51   2.0000      -1.121210       -30.5097
  52   2.0000      -1.118011       -30.4226
  53   2.0000      -0.993419       -27.0323
  54   2.0000      -0.983677       -26.7672
  55   2.0000      -0.970861       -26.4185
  56   2.0000      -0.970669       -26.4133
  57   2.0000      -0.967567       -26.3288
  58   2.0000      -0.933659       -25.4062
  59   2.0000      -0.929642       -25.2968
  60   2.0000      -0.923081       -25.1183
  61   2.0000      -0.920460       -25.0470
  62   2.0000      -0.892396       -24.2833
  63   2.0000      -0.874588       -23.7987
  64   2.0000      -0.862986       -23.4831
  65   2.0000      -0.861491       -23.4424
  66   2.0000      -0.846740       -23.0410
  67   2.0000      -0.846672       -23.0391
  68   2.0000      -0.843140       -22.9430
  69   2.0000      -0.835277       -22.7290
  70   2.0000      -0.830981       -22.6122
  71   2.0000      -0.816996       -22.2316
  72   2.0000      -0.804510       -21.8918
  73   2.0000      -0.775005       -21.0889
  74   2.0000      -0.770424       -20.9643
  75   2.0000      -0.770422       -20.9642
  76   2.0000      -0.769826       -20.9480
  77   2.0000      -0.761734       -20.7278
  78   2.0000      -0.747876       -20.3507
  79   2.0000      -0.741643       -20.1811
  80   2.0000      -0.714713       -19.4483
  81   2.0000      -0.709096       -19.2955
  82   2.0000      -0.703891       -19.1538
  83   2.0000      -0.694187       -18.8898
  84   2.0000      -0.684492       -18.6260
  85   2.0000      -0.676783       -18.4162
  86   2.0000      -0.671705       -18.2780
  87   2.0000      -0.667732       -18.1699
  88   2.0000      -0.657265       -17.8851
  89   2.0000      -0.634037       -17.2530
  90   2.0000      -0.631005       -17.1705
  91   2.0000      -0.619193       -16.8491
  92   2.0000      -0.614406       -16.7188
  93   2.0000      -0.608649       -16.5622
  94   2.0000      -0.592583       -16.1250
  95   2.0000      -0.589665       -16.0456
  96   2.0000      -0.584898       -15.9159
  97   2.0000      -0.581194       -15.8151
  98   2.0000      -0.558778       -15.2051
  99   2.0000      -0.554523       -15.0893
 100   2.0000      -0.551885       -15.0176
 101   2.0000      -0.550216       -14.9721
 102   2.0000      -0.545202       -14.8357
 103   2.0000      -0.532543       -14.4912
 104   2.0000      -0.528950       -14.3935
 105   2.0000      -0.527538       -14.3550
 106   2.0000      -0.522202       -14.2098
 107   2.0000      -0.519265       -14.1299
 108   2.0000      -0.518340       -14.1048
 109   2.0000      -0.515083       -14.0161
 110   2.0000      -0.505507       -13.7556
 111   2.0000      -0.505046       -13.7430
 112   2.0000      -0.502183       -13.6651
 113   2.0000      -0.501855       -13.6562
 114   2.0000      -0.501381       -13.6433
 115   2.0000      -0.499318       -13.5871
 116   2.0000      -0.497544       -13.5389
 117   2.0000      -0.492250       -13.3948
 118   2.0000      -0.491254       -13.3677
 119   2.0000      -0.489308       -13.3148
 120   2.0000      -0.483986       -13.1699
 121   2.0000      -0.478307       -13.0154
 122   2.0000      -0.478294       -13.0150
 123   2.0000      -0.473114       -12.8741
 124   2.0000      -0.471397       -12.8274
 125   2.0000      -0.469637       -12.7795
 126   2.0000      -0.459942       -12.5157
 127   2.0000      -0.458387       -12.4733
 128   2.0000      -0.453946       -12.3525
 129   2.0000      -0.453523       -12.3410
 130   2.0000      -0.448593       -12.2068
 131   2.0000      -0.447065       -12.1652
 132   2.0000      -0.442912       -12.0523
 133   2.0000      -0.441294       -12.0082
 134   2.0000      -0.433852       -11.8057
 135   2.0000      -0.429700       -11.6927
 136   2.0000      -0.429602       -11.6901
 137   2.0000      -0.424926       -11.5628
 138   2.0000      -0.424324       -11.5464
 139   2.0000      -0.419802       -11.4234
 140   2.0000      -0.416475       -11.3329
 141   2.0000      -0.416257       -11.3269
 142   2.0000      -0.415654       -11.3105
 143   2.0000      -0.414456       -11.2779
 144   2.0000      -0.407904       -11.0996
 145   2.0000      -0.407133       -11.0787
 146   2.0000      -0.406396       -11.0586
 147   2.0000      -0.393975       -10.7206
 148   2.0000      -0.392873       -10.6906
 149   2.0000      -0.385718       -10.4959
 150   2.0000      -0.380623       -10.3573
 151   2.0000      -0.379112       -10.3162
 152   2.0000      -0.378995       -10.3130
 153   2.0000      -0.375336       -10.2134
 154   2.0000      -0.371551       -10.1104
 155   2.0000      -0.367591       -10.0027
 156   2.0000      -0.358627        -9.7587
 157   2.0000      -0.356905        -9.7119
 158   2.0000      -0.347119        -9.4456
 159   2.0000      -0.325166        -8.8482
 160   2.0000      -0.318053        -8.6547
 161   2.0000      -0.302979        -8.2445
 162   2.0000      -0.298840        -8.1319
 163   2.0000      -0.293075        -7.9750
 164   2.0000      -0.290210        -7.8970
 165   2.0000      -0.288655        -7.8547
 166   2.0000      -0.287160        -7.8140
 167   2.0000      -0.267096        -7.2680
 168   2.0000      -0.259178        -7.0526
 169   2.0000      -0.245892        -6.6911
 170   2.0000      -0.228830        -6.2268
 171   0.0000      -0.033060        -0.8996
 172   0.0000      -0.010960        -0.2982
 173   0.0000       0.010748         0.2925
 174   0.0000       0.015494         0.4216
 175   0.0000       0.017425         0.4742

MULLIKEN ATOMIC CHARGES
-----------------------
   0 Au:    0.570213
   1 C :    0.248128
   2 C :    0.248153
   3 C :   -0.082576
   4 C :    0.106588
   5 C :   -0.082579
   6 C :   -0.024067
   7 C :   -0.139988
   8 C :   -0.102695
   9 C :   -0.001580
  10 C :   -0.022433
  11 C :   -0.046998
  12 H :    0.054418
  13 H :    0.060190
  14 H :    0.054417
  15 H :    0.024927
  16 H :    0.036809
  17 H :    0.033669
  18 H :    0.035780
  19 C :   -0.024030
  20 C :   -0.047034
  21 C :   -0.140000
  22 C :   -0.022455
  23 H :    0.035785
  24 C :   -0.102712
  25 C :   -0.001549
  26 H :    0.033669
  27 H :    0.024935
  28 H :    0.036802
  29 N :   -0.433079
  30 C :   -0.261709
  31 C :   -0.053784
  32 C :   -0.075316
  33 C :   -0.008819
  34 C :   -0.008906
  35 C :   -0.035104
  36 H :    0.032326
  37 C :   -0.035092
  38 H :    0.032346
  39 C :    0.165999
  40 H :    0.041007
  41 H :    0.041009
  42 C :    0.192175
  43 C :    0.192220
  44 C :   -0.108909
  45 C :    0.018981
  46 C :   -0.108952
  47 C :    0.019061
  48 C :   -0.058596
  49 H :    0.020550
  50 C :   -0.110963
  51 C :   -0.058581
  52 H :    0.020521
  53 C :   -0.110945
  54 C :    0.026419
  55 H :    0.032205
  56 H :    0.013839
  57 C :    0.026395
  58 H :    0.032192
  59 H :    0.013830
  60 N :   -0.330591
  61 C :   -0.314213
  62 C :   -0.314235
  63 C :    0.054681
  64 H :    0.018765
  65 H :    0.021539
  66 H :    0.018212
  67 C :    0.081134
  68 H :    0.019616
  69 H :    0.022151
  70 H :    0.022028
  71 C :    0.055189
  72 H :    0.017979
  73 H :    0.021256
  74 H :    0.018927
  75 C :    0.054542
  76 H :    0.018753
  77 H :    0.021581
  78 H :    0.018215
  79 C :    0.081114
  80 H :    0.022076
  81 H :    0.019622
  82 H :    0.022111
  83 C :    0.055317
  84 H :    0.017978
  85 H :    0.021214
  86 H :    0.018935
Sum of atomic charges:    0.0000000

LOEWDIN ATOMIC CHARGES
----------------------
   0 Au:    0.207232
   1 C :    0.092813
   2 C :    0.092818
   3 C :   -0.033323
   4 C :    0.054068
   5 C :   -0.033327
   6 C :   -0.058725
   7 C :   -0.134550
   8 C :   -0.037324
   9 C :   -0.015523
  10 C :   -0.037285
  11 C :   -0.007797
  12 H :    0.053247
  13 H :    0.056367
  14 H :    0.053246
  15 H :    0.036853
  16 H :    0.039414
  17 H :    0.039314
  18 H :    0.042333
  19 C :   -0.058723
  20 C :   -0.007798
  21 C :   -0.134546
  22 C :   -0.037287
  23 H :    0.042336
  24 C :   -0.037330
  25 C :   -0.015520
  26 H :    0.039314
  27 H :    0.036853
  28 H :    0.039413
  29 N :   -0.020206
  30 C :   -0.173863
  31 C :   -0.102004
  32 C :   -0.058641
  33 C :   -0.004372
  34 C :   -0.004332
  35 C :   -0.029600
  36 H :    0.043887
  37 C :   -0.029594
  38 H :    0.043890
  39 C :    0.027992
  40 H :    0.045906
  41 H :    0.045903
  42 C :    0.032921
  43 C :    0.032954
  44 C :   -0.059160
  45 C :   -0.057674
  46 C :   -0.059199
  47 C :   -0.057679
  48 C :   -0.026359
  49 H :    0.039207
  50 C :   -0.028159
  51 C :   -0.026352
  52 H :    0.039198
  53 C :   -0.028151
  54 C :   -0.033919
  55 H :    0.035017
  56 H :    0.036556
  57 C :   -0.033929
  58 H :    0.035014
  59 H :    0.036554
  60 N :   -0.005049
  61 C :   -0.050757
  62 C :   -0.050759
  63 C :   -0.032078
  64 H :    0.020286
  65 H :    0.019880
  66 H :    0.019815
  67 C :   -0.035573
  68 H :    0.022612
  69 H :    0.020670
  70 H :    0.020656
  71 C :   -0.032014
  72 H :    0.019776
  73 H :    0.019789
  74 H :    0.020280
  75 C :   -0.032090
  76 H :    0.020292
  77 H :    0.019883
  78 H :    0.019816
  79 C :   -0.035574
  80 H :    0.020655
  81 H :    0.022613
  82 H :    0.020671
  83 C :   -0.032006
  84 H :    0.019776
  85 H :    0.019784
  86 H :    0.020276

  Mayer bond orders larger than 0.100000
B(  0-Au,  7-C ) :   0.5816 B(  0-Au, 21-C ) :   0.5816 B(  0-Au, 29-N ) :   0.4617
B(  0-Au, 30-C ) :   0.7524 B(  1-C ,  5-C ) :   1.4046 B(  1-C ,  6-C ) :   1.0275
B(  1-C , 29-N ) :   1.2473 B(  2-C ,  3-C ) :   1.4046 B(  2-C , 19-C ) :   1.0275
B(  2-C , 29-N ) :   1.2473 B(  3-C ,  4-C ) :   1.3910 B(  3-C , 12-H ) :   0.9823
B(  4-C ,  5-C ) :   1.3910 B(  4-C , 13-H ) :   0.9779 B(  5-C , 14-H ) :   0.9823
B(  6-C ,  7-C ) :   1.3003 B(  6-C , 11-C ) :   1.3855 B(  7-C ,  8-C ) :   1.4680
B(  7-C , 21-C ) :   0.2308 B(  8-C ,  9-C ) :   1.3685 B(  8-C , 15-H ) :   0.9945
B(  9-C , 10-C ) :   1.3796 B(  9-C , 16-H ) :   0.9964 B( 10-C , 11-C ) :   1.3922
B( 10-C , 17-H ) :   0.9954 B( 11-C , 18-H ) :   0.9957 B( 19-C , 20-C ) :   1.3855
B( 19-C , 21-C ) :   1.3003 B( 20-C , 22-C ) :   1.3923 B( 20-C , 23-H ) :   0.9957
B( 21-C , 24-C ) :   1.4680 B( 22-C , 25-C ) :   1.3796 B( 22-C , 26-H ) :   0.9954
B( 24-C , 25-C ) :   1.3685 B( 24-C , 27-H ) :   0.9945 B( 25-C , 28-H ) :   0.9964
B( 29-N , 30-C ) :   0.1006 B( 30-C , 31-C ) :   2.9238 B( 31-C , 32-C ) :   0.9357
B( 32-C , 33-C ) :   1.3589 B( 32-C , 34-C ) :   1.3589 B( 33-C , 35-C ) :   1.3925
B( 33-C , 36-H ) :   1.0002 B( 34-C , 37-C ) :   1.3928 B( 34-C , 38-H ) :   1.0001
B( 35-C , 39-C ) :   1.3748 B( 35-C , 40-H ) :   0.9996 B( 37-C , 39-C ) :   1.3746
B( 37-C , 41-H ) :   0.9996 B( 39-C , 60-N ) :   0.9275 B( 42-C , 44-C ) :   1.3033
B( 42-C , 45-C ) :   1.3172 B( 42-C , 60-N ) :   1.0629 B( 43-C , 46-C ) :   1.3033
B( 43-C , 47-C ) :   1.3172 B( 43-C , 60-N ) :   1.0629 B( 44-C , 48-C ) :   1.4325
B( 44-C , 49-H ) :   1.0108 B( 45-C , 47-C ) :   1.1061 B( 45-C , 50-C ) :   1.2922
B( 46-C , 51-C ) :   1.4325 B( 46-C , 52-H ) :   1.0108 B( 47-C , 53-C ) :   1.2922
B( 48-C , 54-C ) :   1.3257 B( 48-C , 55-H ) :   0.9970 B( 50-C , 54-C ) :   1.4623
B( 50-C , 56-H ) :   1.0026 B( 51-C , 57-C ) :   1.3257 B( 51-C , 58-H ) :   0.9970
B( 53-C , 57-C ) :   1.4623 B( 53-C , 59-H ) :   1.0026 B( 54-C , 62-C ) :   0.9196
B( 57-C , 61-C ) :   0.9196 B( 61-C , 75-C ) :   1.0256 B( 61-C , 79-C ) :   1.0787
B( 61-C , 83-C ) :   1.0253 B( 62-C , 63-C ) :   1.0257 B( 62-C , 67-C ) :   1.0787
B( 62-C , 71-C ) :   1.0252 B( 63-C , 64-H ) :   0.9723 B( 63-C , 65-H ) :   0.9716
B( 63-C , 66-H ) :   0.9720 B( 67-C , 68-H ) :   0.9673 B( 67-C , 69-H ) :   0.9574
B( 67-C , 70-H ) :   0.9573 B( 71-C , 72-H ) :   0.9719 B( 71-C , 73-H ) :   0.9715
B( 71-C , 74-H ) :   0.9723 B( 75-C , 76-H ) :   0.9723 B( 75-C , 77-H ) :   0.9716
B( 75-C , 78-H ) :   0.9720 B( 79-C , 80-H ) :   0.9573 B( 79-C , 81-H ) :   0.9673
B( 79-C , 82-H ) :   0.9574 B( 83-C , 84-H ) :   0.9719 B( 83-C , 85-H ) :   0.9715
B( 83-C , 86-H ) :   0.9723

MP2 TOTAL ENERGY:    -1980.000807413 Eh

-----------------------------------------------------------------------------
         ABSORPTION SPECTRUM VIA TRANSITION ELECTRIC DIPOLE MOMENTS
-----------------------------------------------------------------------------
State   Energy    Wavelength  fosc         T2        TX        TY        TZ
        (cm-1)      (nm)                 (au**2)    (au)      (au)      (au)
-----------------------------------------------------------------------------
   1   28100.0    355.9   0.095248471   1.11591   0.00001   1.05635  -0.00547
   2   28006.8    357.1   0.429080321   5.04371  -2.24582   0.00138  -0.00063
   3   30762.7    325.1   0.379869401   4.06523  -2.01623  -0.00546  -0.00424
   4   31416.3    318.3   0.177296648   1.85789  -1.36303  -0.00589   0.00121
   5   35425.2    282.3   0.322750999   2.99937  -1.73182   0.00118   0.01270
   6   34375.2    290.9   0.089156960   0.85386  -0.01774  -0.92361   0.02209
   7   36495.8    274.0   0.550501843   4.96583  -0.03489  -2.22727  -0.06240
   8   31374.1    318.7   0.082163164   0.86215   0.92191  -0.11054   0.00192
   9   35134.8    284.6   0.086598252   0.81142   0.00745  -0.89883  -0.05891
  10   35357.3    282.8   0.008766123   0.08162  -0.28566   0.00425   0.00155
  11   32055.2    312.0   0.001060110   0.01089   0.00000   0.08902  -0.05443
  12   35916.8    278.4   0.007853121   0.07198   0.00165   0.17921  -0.19966
  13   36782.2    271.9   0.001302588   0.01166   0.10796  -0.00170   0.00056
  14   34017.1    294.0   0.010381425   0.10047  -0.00218   0.31695   0.00325
  15   37104.5    269.5   0.025132235   0.22299  -0.47218   0.00534   0.00205
  16   36633.3    273.0   0.020202502   0.18155   0.42607  -0.00300  -0.00235
  17   39153.0    255.4   0.102950315   0.86564  -0.93039   0.00326   0.00084
  18   34526.0    289.6   0.000644165   0.00614   0.00113  -0.04374  -0.06502
  19   38463.6    260.0   0.131921974   1.12913   0.00235  -1.06053  -0.06632
  20   38607.5    259.0   0.007526795   0.06418   0.00493   0.24882  -0.04737
  21   41069.5    243.5   0.496582767   3.98059  -0.00017   1.99472  -0.04103
  22   40603.0    246.3   0.092382301   0.74904   0.86457   0.03933   0.00345
  23   40237.4    248.5   0.003806260   0.03114   0.01943  -0.13276  -0.11463
  24   40311.9    248.1   1.221680718   9.97700   0.00871  -3.15658  -0.11376
  25   39513.4    253.1   0.015186489   0.12653   0.35568   0.00386  -0.00272
  26   38432.5    260.2   0.000001124   0.00001  -0.00100   0.00293   0.00015
  27   42500.1    235.3   0.018597861   0.14406  -0.00321  -0.37520   0.05722
  28   41181.7    242.8   0.005136024   0.04106  -0.20251   0.00678  -0.00012
  29   42764.6    233.8   0.231390440   1.78130   1.26169  -0.42715   0.08347
  30   42101.1    237.5   0.324772466   2.53958  -0.25460  -1.50665   0.45251
  31   43355.1    230.7   0.360874426   2.74026  -0.08610  -1.64216  -0.19014
  32   42037.3    237.9   0.081261706   0.63640  -0.79770  -0.00863   0.00076
  33   42641.8    234.5   0.272240760   2.10181  -0.01737   1.44892   0.04627
  34   41433.5    241.4   0.270963268   2.15295  -1.46723  -0.01178   0.00719
  35   42102.5    237.5   0.026472009   0.20699   0.02156   0.45383   0.02379
  36   40930.7    244.3   0.018506034   0.14885  -0.00055   0.38293   0.04702
  37   46101.8    216.9   0.012792572   0.09135   0.30217  -0.00587   0.00274
  38   45962.9    217.6   0.002894550   0.02073   0.14163   0.02596  -0.00075
  39   44212.2    226.2   0.009707387   0.07228   0.18706   0.19297  -0.00737
  40   42043.9    237.8   0.117027588   0.91635   0.03795  -0.95567   0.04007

FINAL SINGLE POINT ENERGY     -1977.645768481543

DIPOLE MOMENT
-------------
                                X             Y             Z
Electronic contribution:   -764.79881      -0.12574      -1.23507
Nuclear contribution   :    760.98124       0.12762       1.26625
                        -----------------------------------------
Total Dipole Moment    :     -3.81756       0.00187       0.03118
                        -----------------------------------------
Magnitude (a.u.)       :      3.81769
Magnitude (Debye)      :      9.70380

Rotational constants in cm-1:     0.003106     0.000590     0.000500
Rotational constants in MHz :    93.110247    17.673572    14.995213

                             ****ORCA TERMINATED NORMALLY****
TOTAL RUN TIME: 0 days 3 hours 6 minutes 27 seconds 103 msec
