                         Program Version 5.0.4 -  RELEASE  -
|  1> %maxcore 6000
|  2> %pal
|  3>  nprocs 8
|  4> end
|  5> ! RI-wB2PLYP def2-SVP def2/J def2-SVP/C RIJCOSX CPCM TIGHTSCF
|  6>
|  7> %TDDFT
|  8>     DCORR      1
|  9>     NROOTS    40
| 10>     TDA       FALSE
| 11> END
| 12>
| 13> %CPCM
| 14>     SMD		TRUE
| 15>     SMDsolvent	"Acetonitrile"
| 16> END
| 17>
| 18> * xyz 0 1
| 19> Au                 -4.55610900   -0.00065700   -0.00742000
| 20> C                  -7.22581000    1.19989100    0.00366500
| 21> C                  -7.22686800   -1.19841200    0.02526000
| 22> C                  -8.62468400   -1.21246900    0.03707300
| 23> C                  -9.30875400    0.00179600    0.03062700
| 24> C                  -8.62362200    1.21536500    0.01368300
| 25> C                  -6.31258900    2.35092900   -0.01260700
| 26> C                  -4.91233800    2.08377800   -0.02103800
| 27> C                  -4.03073100    3.16317200   -0.03755100
| 28> C                  -4.50455500    4.48040500   -0.04537200
| 29> C                  -5.87658500    4.73454900   -0.03628100
| 30> C                  -6.77911900    3.67397100   -0.01984200
| 31> H                  -9.16746500   -2.15763800    0.05044200
| 32> H                 -10.40062400    0.00235800    0.03897900
| 33> H                  -9.16557800    2.16109200    0.00852800
| 34> H                  -2.95037500    2.98720800   -0.04490100
| 35> H                  -3.79628400    5.31345200   -0.05864300
| 36> H                  -6.24576900    5.76258400   -0.04220600
| 37> H                  -7.85301400    3.87861300   -0.01305900
| 38> C                  -6.31470300   -2.35038600    0.02780500
| 39> C                  -6.78246400   -3.67289900    0.04490100
| 40> C                  -4.91422200   -2.08473900    0.01291500
| 41> C                  -5.88092600   -4.73444300    0.04796700
| 42> H                  -7.85653800   -3.87638500    0.05631300
| 43> C                  -4.03362600   -3.16507900    0.01645300
| 44> C                  -4.50866400   -4.48178700    0.03387300
| 45> H                  -6.25106000   -5.76206300    0.06165200
| 46> H                  -2.95310100   -2.99029000    0.00606400
| 47> H                  -3.80115700   -5.31558400    0.03662800
| 48> N                  -6.60305800    0.00041700    0.00940600
| 49> C                  -2.57853500   -0.00180100   -0.01843800
| 50> C                  -1.34813500   -0.00248200   -0.02012500
| 51> C                   0.07667200   -0.00330700   -0.01956400
| 52> C                   0.80462800    0.81994600   -0.90326900
| 53> C                   0.80171100   -0.82692900    0.86626300
| 54> C                   2.19301300    0.81303300   -0.90817700
| 55> H                   0.26577800    1.46052700   -1.60480400
| 56> C                   2.18999800   -0.81962500    0.87629500
| 57> H                   0.26045900   -1.46745900    1.56599600
| 58> C                   2.90003800   -0.00291800   -0.01440900
| 59> H                   2.73833300    1.43568700   -1.62033400
| 60> H                   2.73277800   -1.44197600    1.59065300
| 61> C                   5.13017900   -1.12972200   -0.01493000
| 62> C                   5.12780800    1.12811300    0.00198500
| 63> C                   4.79428800   -2.48486500   -0.07171500
| 64> C                   6.48497100   -0.72070100   -0.00576700
| 65> C                   4.78862900    2.48255700    0.05565000
| 66> C                   6.48344900    0.72182400    0.00655100
| 67> C                   5.83116500   -3.41123200   -0.09215700
| 68> H                   3.75484700   -2.81707200   -0.10659600
| 69> C                   7.50720400   -1.68032400   -0.02511400
| 70> C                   5.82336700    3.41101000    0.08704100
| 71> H                   3.74821700    2.81265700    0.07988500
| 72> C                   7.50347700    1.68350800    0.03675600
| 73> C                   7.19623400   -3.04103700   -0.06189600
| 74> H                   5.56919400   -4.47217500   -0.13525100
| 75> H                   8.54544900   -1.34193300   -0.01524400
| 76> C                   7.18941600    3.04358200    0.07083200
| 77> H                   5.55884300    4.47141000    0.12773300
| 78> H                   8.54243700    1.34717700    0.03758300
| 79> N                   4.31049800   -0.00165500   -0.01068900
| 80> C                   8.25679100    4.14021400    0.09477500
| 81> C                   8.26601200   -4.13550300   -0.07468100
| 82> C                   8.11580700   -4.98114700   -1.34421600
| 83> H                   8.87453700   -5.77843600   -1.37196300
| 84> H                   7.13068800   -5.46648600   -1.40458300
| 85> H                   8.24218200   -4.37042000   -2.25119600
| 86> C                   9.67632800   -3.55430600   -0.04457300
| 87> H                  10.41917600   -4.36540600   -0.05285800
| 88> H                   9.88104100   -2.91615600   -0.91706500
| 89> H                   9.85868800   -2.95468300    0.85966600
| 90> C                   8.08535600   -5.03588800    1.15279500
| 91> H                   8.18763600   -4.46526500    2.08849800
| 92> H                   7.09971300   -5.52383800    1.16691700
| 93> H                   8.84456400   -5.83315000    1.16517000
| 94> C                   8.09064200    4.98676200    1.36171900
| 95> H                   8.84784700    5.78517900    1.39748400
| 96> H                   7.10424100    5.47080600    1.41025900
| 97> H                   8.20740200    4.37706200    2.27067500
| 98> C                   9.66852100    3.56183200    0.08113200
| 99> H                   9.86237900    2.96192500   -0.82051900
|100> H                  10.40959800    4.37443100    0.09724200
|101> H                   9.86451800    2.92471300    0.95638000
|102> C                   8.08812900    5.03904600   -1.13554000
|103> H                   8.20281700    4.46782900   -2.06943900
|104> H                   7.10140500    5.52432100   -1.16162900
|105> H                   8.84534900    5.83828400   -1.13983900
|106> *
|107>
|108>                          ****END OF INPUT****

CARTESIAN COORDINATES (ANGSTROEM)
---------------------------------
  Au    -4.556109   -0.000657   -0.007420
  C     -7.225810    1.199891    0.003665
  C     -7.226868   -1.198412    0.025260
  C     -8.624684   -1.212469    0.037073
  C     -9.308754    0.001796    0.030627
  C     -8.623622    1.215365    0.013683
  C     -6.312589    2.350929   -0.012607
  C     -4.912338    2.083778   -0.021038
  C     -4.030731    3.163172   -0.037551
  C     -4.504555    4.480405   -0.045372
  C     -5.876585    4.734549   -0.036281
  C     -6.779119    3.673971   -0.019842
  H     -9.167465   -2.157638    0.050442
  H    -10.400624    0.002358    0.038979
  H     -9.165578    2.161092    0.008528
  H     -2.950375    2.987208   -0.044901
  H     -3.796284    5.313452   -0.058643
  H     -6.245769    5.762584   -0.042206
  H     -7.853014    3.878613   -0.013059
  C     -6.314703   -2.350386    0.027805
  C     -6.782464   -3.672899    0.044901
  C     -4.914222   -2.084739    0.012915
  C     -5.880926   -4.734443    0.047967
  H     -7.856538   -3.876385    0.056313
  C     -4.033626   -3.165079    0.016453
  C     -4.508664   -4.481787    0.033873
  H     -6.251060   -5.762063    0.061652
  H     -2.953101   -2.990290    0.006064
  H     -3.801157   -5.315584    0.036628
  N     -6.603058    0.000417    0.009406
  C     -2.578535   -0.001801   -0.018438
  C     -1.348135   -0.002482   -0.020125
  C      0.076672   -0.003307   -0.019564
  C      0.804628    0.819946   -0.903269
  C      0.801711   -0.826929    0.866263
  C      2.193013    0.813033   -0.908177
  H      0.265778    1.460527   -1.604804
  C      2.189998   -0.819625    0.876295
  H      0.260459   -1.467459    1.565996
  C      2.900038   -0.002918   -0.014409
  H      2.738333    1.435687   -1.620334
  H      2.732778   -1.441976    1.590653
  C      5.130179   -1.129722   -0.014930
  C      5.127808    1.128113    0.001985
  C      4.794288   -2.484865   -0.071715
  C      6.484971   -0.720701   -0.005767
  C      4.788629    2.482557    0.055650
  C      6.483449    0.721824    0.006551
  C      5.831165   -3.411232   -0.092157
  H      3.754847   -2.817072   -0.106596
  C      7.507204   -1.680324   -0.025114
  C      5.823367    3.411010    0.087041
  H      3.748217    2.812657    0.079885
  C      7.503477    1.683508    0.036756
  C      7.196234   -3.041037   -0.061896
  H      5.569194   -4.472175   -0.135251
  H      8.545449   -1.341933   -0.015244
  C      7.189416    3.043582    0.070832
  H      5.558843    4.471410    0.127733
  H      8.542437    1.347177    0.037583
  N      4.310498   -0.001655   -0.010689
  C      8.256791    4.140214    0.094775
  C      8.266012   -4.135503   -0.074681
  C      8.115807   -4.981147   -1.344216
  H      8.874537   -5.778436   -1.371963
  H      7.130688   -5.466486   -1.404583
  H      8.242182   -4.370420   -2.251196
  C      9.676328   -3.554306   -0.044573
  H     10.419176   -4.365406   -0.052858
  H      9.881041   -2.916156   -0.917065
  H      9.858688   -2.954683    0.859666
  C      8.085356   -5.035888    1.152795
  H      8.187636   -4.465265    2.088498
  H      7.099713   -5.523838    1.166917
  H      8.844564   -5.833150    1.165170
  C      8.090642    4.986762    1.361719
  H      8.847847    5.785179    1.397484
  H      7.104241    5.470806    1.410259
  H      8.207402    4.377062    2.270675
  C      9.668521    3.561832    0.081132
  H      9.862379    2.961925   -0.820519
  H     10.409598    4.374431    0.097242
  H      9.864518    2.924713    0.956380
  C      8.088129    5.039046   -1.135540
  H      8.202817    4.467829   -2.069439
  H      7.101405    5.524321   -1.161629
  H      8.845349    5.838284   -1.139839

 Total Charge           Charge          ....    0
 Multiplicity           Mult            ....    1
 Number of Electrons    NEL             ....  342
 Basis Dimension        Dim             ....  885

ORBITAL ENERGIES
----------------

  NO   OCC          E(Eh)            E(eV)
   0   2.0000     -14.985872      -407.7863
   1   2.0000     -14.964662      -407.2091
   2   2.0000     -10.777448      -293.2693
   3   2.0000     -10.777432      -293.2688
   4   2.0000     -10.753033      -292.6049
   5   2.0000     -10.737730      -292.1885
   6   2.0000     -10.737700      -292.1877
   7   2.0000     -10.736348      -292.1509
   8   2.0000     -10.727932      -291.9219
   9   2.0000     -10.718548      -291.6665
  10   2.0000     -10.718545      -291.6664
  11   2.0000     -10.715318      -291.5786
  12   2.0000     -10.715299      -291.5781
  13   2.0000     -10.710897      -291.4583
  14   2.0000     -10.710881      -291.4579
  15   2.0000     -10.708081      -291.3817
  16   2.0000     -10.708078      -291.3816
  17   2.0000     -10.707048      -291.3536
  18   2.0000     -10.707035      -291.3532
  19   2.0000     -10.706165      -291.3296
  20   2.0000     -10.706115      -291.3282
  21   2.0000     -10.703811      -291.2655
  22   2.0000     -10.703810      -291.2655
  23   2.0000     -10.700114      -291.1649
  24   2.0000     -10.700113      -291.1649
  25   2.0000     -10.698905      -291.1320
  26   2.0000     -10.698876      -291.1312
  27   2.0000     -10.698638      -291.1247
  28   2.0000     -10.698635      -291.1247
  29   2.0000     -10.698526      -291.1217
  30   2.0000     -10.698237      -291.1138
  31   2.0000     -10.697949      -291.1060
  32   2.0000     -10.697940      -291.1058
  33   2.0000     -10.697907      -291.1048
  34   2.0000     -10.696910      -291.0777
  35   2.0000     -10.696894      -291.0773
  36   2.0000     -10.696046      -291.0542
  37   2.0000     -10.696041      -291.0541
  38   2.0000     -10.695376      -291.0360
  39   2.0000     -10.695373      -291.0359
  40   2.0000     -10.691660      -290.9349
  41   2.0000     -10.673920      -290.4521
  42   2.0000     -10.673915      -290.4520
  43   2.0000     -10.673864      -290.4506
  44   2.0000     -10.673859      -290.4505
  45   2.0000     -10.672661      -290.4179
  46   2.0000     -10.672657      -290.4178
  47   2.0000      -4.573788      -124.4591
  48   2.0000      -2.691784       -73.2472
  49   2.0000      -2.682985       -73.0077
  50   2.0000      -2.664413       -72.5024
  51   2.0000      -1.205468       -32.8025
  52   2.0000      -1.203413       -32.7465
  53   2.0000      -1.078287       -29.3417
  54   2.0000      -1.068258       -29.0688
  55   2.0000      -1.055757       -28.7286
  56   2.0000      -1.054737       -28.7009
  57   2.0000      -1.051924       -28.6243
  58   2.0000      -1.016525       -27.6610
  59   2.0000      -1.013091       -27.5676
  60   2.0000      -1.005931       -27.3728
  61   2.0000      -1.003973       -27.3195
  62   2.0000      -0.974828       -26.5264
  63   2.0000      -0.956587       -26.0301
  64   2.0000      -0.944085       -25.6899
  65   2.0000      -0.942776       -25.6542
  66   2.0000      -0.927339       -25.2342
  67   2.0000      -0.927293       -25.2329
  68   2.0000      -0.924095       -25.1459
  69   2.0000      -0.915669       -24.9166
  70   2.0000      -0.910766       -24.7832
  71   2.0000      -0.897372       -24.4187
  72   2.0000      -0.883663       -24.0457
  73   2.0000      -0.854421       -23.2500
  74   2.0000      -0.849330       -23.1114
  75   2.0000      -0.849328       -23.1114
  76   2.0000      -0.848738       -23.0953
  77   2.0000      -0.839614       -22.8471
  78   2.0000      -0.825651       -22.4671
  79   2.0000      -0.819034       -22.2870
  80   2.0000      -0.791798       -21.5459
  81   2.0000      -0.785393       -21.3716
  82   2.0000      -0.780418       -21.2363
  83   2.0000      -0.770248       -20.9595
  84   2.0000      -0.760037       -20.6817
  85   2.0000      -0.751875       -20.4595
  86   2.0000      -0.747088       -20.3293
  87   2.0000      -0.742170       -20.1955
  88   2.0000      -0.732405       -19.9297
  89   2.0000      -0.709337       -19.3020
  90   2.0000      -0.706431       -19.2230
  91   2.0000      -0.693455       -18.8699
  92   2.0000      -0.687762       -18.7149
  93   2.0000      -0.681304       -18.5392
  94   2.0000      -0.665217       -18.1015
  95   2.0000      -0.662483       -18.0271
  96   2.0000      -0.657257       -17.8849
  97   2.0000      -0.654065       -17.7980
  98   2.0000      -0.630722       -17.1628
  99   2.0000      -0.627607       -17.0780
 100   2.0000      -0.624067       -16.9817
 101   2.0000      -0.620695       -16.8900
 102   2.0000      -0.616411       -16.7734
 103   2.0000      -0.604954       -16.4616
 104   2.0000      -0.604294       -16.4437
 105   2.0000      -0.597830       -16.2678
 106   2.0000      -0.592657       -16.1270
 107   2.0000      -0.588920       -16.0253
 108   2.0000      -0.587322       -15.9819
 109   2.0000      -0.585603       -15.9351
 110   2.0000      -0.577965       -15.7272
 111   2.0000      -0.573607       -15.6086
 112   2.0000      -0.571128       -15.5412
 113   2.0000      -0.570771       -15.5315
 114   2.0000      -0.570701       -15.5296
 115   2.0000      -0.569416       -15.4946
 116   2.0000      -0.567326       -15.4377
 117   2.0000      -0.560435       -15.2502
 118   2.0000      -0.560009       -15.2386
 119   2.0000      -0.558309       -15.1924
 120   2.0000      -0.552673       -15.0390
 121   2.0000      -0.546997       -14.8845
 122   2.0000      -0.545611       -14.8468
 123   2.0000      -0.544924       -14.8281
 124   2.0000      -0.543578       -14.7915
 125   2.0000      -0.536898       -14.6097
 126   2.0000      -0.531276       -14.4568
 127   2.0000      -0.526402       -14.3241
 128   2.0000      -0.522596       -14.2206
 129   2.0000      -0.520257       -14.1569
 130   2.0000      -0.516575       -14.0567
 131   2.0000      -0.514406       -13.9977
 132   2.0000      -0.511393       -13.9157
 133   2.0000      -0.506790       -13.7904
 134   2.0000      -0.499638       -13.5958
 135   2.0000      -0.495596       -13.4859
 136   2.0000      -0.495504       -13.4833
 137   2.0000      -0.495015       -13.4701
 138   2.0000      -0.494954       -13.4684
 139   2.0000      -0.484801       -13.1921
 140   2.0000      -0.481182       -13.0936
 141   2.0000      -0.481048       -13.0900
 142   2.0000      -0.479876       -13.0581
 143   2.0000      -0.478887       -13.0312
 144   2.0000      -0.475940       -12.9510
 145   2.0000      -0.471459       -12.8291
 146   2.0000      -0.470935       -12.8148
 147   2.0000      -0.458555       -12.4779
 148   2.0000      -0.458038       -12.4639
 149   2.0000      -0.452176       -12.3043
 150   2.0000      -0.444155       -12.0861
 151   2.0000      -0.443138       -12.0584
 152   2.0000      -0.442214       -12.0333
 153   2.0000      -0.438305       -11.9269
 154   2.0000      -0.434076       -11.8118
 155   2.0000      -0.429994       -11.7007
 156   2.0000      -0.421150       -11.4601
 157   2.0000      -0.418559       -11.3896
 158   2.0000      -0.410746       -11.1770
 159   2.0000      -0.386822       -10.5260
 160   2.0000      -0.381036       -10.3685
 161   2.0000      -0.360669        -9.8143
 162   2.0000      -0.356049        -9.6886
 163   2.0000      -0.349676        -9.5152
 164   2.0000      -0.348477        -9.4826
 165   2.0000      -0.347063        -9.4441
 166   2.0000      -0.343388        -9.3441
 167   2.0000      -0.323021        -8.7899
 168   2.0000      -0.311141        -8.4666
 169   2.0000      -0.298286        -8.1168
 170   2.0000      -0.280538        -7.6338
 171   0.0000       0.005537         0.1507
 172   0.0000       0.029983         0.8159
 173   0.0000       0.051192         1.3930
 174   0.0000       0.055618         1.5134
 175   0.0000       0.063001         1.7144

MULLIKEN ATOMIC CHARGES
-----------------------
   0 Au:    0.595034
   1 C :    0.241141
   2 C :    0.241165
   3 C :   -0.094703
   4 C :    0.095530
   5 C :   -0.094705
   6 C :   -0.034852
   7 C :   -0.145610
   8 C :   -0.117124
   9 C :   -0.015450
  10 C :   -0.040726
  11 C :   -0.055870
  12 H :    0.069610
  13 H :    0.077599
  14 H :    0.069609
  15 H :    0.037468
  16 H :    0.052323
  17 H :    0.048822
  18 H :    0.051025
  19 C :   -0.034807
  20 C :   -0.055912
  21 C :   -0.145621
  22 C :   -0.040749
  23 H :    0.051030
  24 C :   -0.117136
  25 C :   -0.015419
  26 H :    0.048821
  27 H :    0.037474
  28 H :    0.052316
  29 N :   -0.425641
  30 C :   -0.262393
  31 C :   -0.064711
  32 C :   -0.081318
  33 C :   -0.017496
  34 C :   -0.017595
  35 C :   -0.046288
  36 H :    0.048603
  37 C :   -0.046266
  38 H :    0.048615
  39 C :    0.152544
  40 H :    0.056280
  41 H :    0.056275
  42 C :    0.181618
  43 C :    0.181693
  44 C :   -0.113222
  45 C :    0.008060
  46 C :   -0.113271
  47 C :    0.008139
  48 C :   -0.071566
  49 H :    0.035220
  50 C :   -0.109878
  51 C :   -0.071545
  52 H :    0.035180
  53 C :   -0.109872
  54 C :    0.018576
  55 H :    0.047207
  56 H :    0.028297
  57 C :    0.018549
  58 H :    0.047191
  59 H :    0.028289
  60 N :   -0.326778
  61 C :   -0.320661
  62 C :   -0.320691
  63 C :    0.019679
  64 H :    0.031960
  65 H :    0.033883
  66 H :    0.031097
  67 C :    0.041844
  68 H :    0.033397
  69 H :    0.035393
  70 H :    0.035266
  71 C :    0.020209
  72 H :    0.030855
  73 H :    0.033609
  74 H :    0.032105
  75 C :    0.019555
  76 H :    0.031944
  77 H :    0.033922
  78 H :    0.031100
  79 C :    0.041822
  80 H :    0.035310
  81 H :    0.033403
  82 H :    0.035358
  83 C :    0.020326
  84 H :    0.030853
  85 H :    0.033571
  86 H :    0.032114
Sum of atomic charges:   -0.0000000

LOEWDIN ATOMIC CHARGES
----------------------
   0 Au:    0.212846
   1 C :    0.097422
   2 C :    0.097427
   3 C :   -0.042590
   4 C :    0.057461
   5 C :   -0.042594
   6 C :   -0.063435
   7 C :   -0.137970
   8 C :   -0.043372
   9 C :   -0.018884
  10 C :   -0.043303
  11 C :   -0.010939
  12 H :    0.057866
  13 H :    0.062235
  14 H :    0.057866
  15 H :    0.041005
  16 H :    0.044421
  17 H :    0.044012
  18 H :    0.047120
  19 C :   -0.063433
  20 C :   -0.010939
  21 C :   -0.137965
  22 C :   -0.043305
  23 H :    0.047123
  24 C :   -0.043378
  25 C :   -0.018881
  26 H :    0.044012
  27 H :    0.041004
  28 H :    0.044421
  29 N :   -0.020090
  30 C :   -0.174329
  31 C :   -0.101936
  32 C :   -0.061071
  33 C :   -0.006695
  34 C :   -0.006657
  35 C :   -0.035023
  36 H :    0.049125
  37 C :   -0.035016
  38 H :    0.049126
  39 C :    0.028225
  40 H :    0.050698
  41 H :    0.050693
  42 C :    0.033931
  43 C :    0.033967
  44 C :   -0.063794
  45 C :   -0.060311
  46 C :   -0.063831
  47 C :   -0.060316
  48 C :   -0.028509
  49 H :    0.044088
  50 C :   -0.029859
  51 C :   -0.028501
  52 H :    0.044077
  53 C :   -0.029851
  54 C :   -0.036861
  55 H :    0.039958
  56 H :    0.041295
  57 C :   -0.036870
  58 H :    0.039954
  59 H :    0.041292
  60 N :   -0.011173
  61 C :   -0.053091
  62 C :   -0.053094
  63 C :   -0.044845
  64 H :    0.025064
  65 H :    0.024311
  66 H :    0.024523
  67 C :   -0.048457
  68 H :    0.027468
  69 H :    0.025284
  70 H :    0.025270
  71 C :   -0.044775
  72 H :    0.024479
  73 H :    0.024224
  74 H :    0.025054
  75 C :   -0.044853
  76 H :    0.025068
  77 H :    0.024314
  78 H :    0.024523
  79 C :   -0.048458
  80 H :    0.025269
  81 H :    0.027468
  82 H :    0.025285
  83 C :   -0.044769
  84 H :    0.024478
  85 H :    0.024219
  86 H :    0.025051

  Mayer bond orders larger than 0.100000
B(  0-Au,  7-C ) :   0.5918 B(  0-Au, 21-C ) :   0.5918 B(  0-Au, 29-N ) :   0.4657
B(  0-Au, 30-C ) :   0.7447 B(  1-C ,  5-C ) :   1.4211 B(  1-C ,  6-C ) :   1.0190
B(  1-C , 29-N ) :   1.2578 B(  2-C ,  3-C ) :   1.4210 B(  2-C , 19-C ) :   1.0190
B(  2-C , 29-N ) :   1.2578 B(  3-C ,  4-C ) :   1.4018 B(  3-C , 12-H ) :   0.9791
B(  4-C ,  5-C ) :   1.4018 B(  4-C , 13-H ) :   0.9765 B(  5-C , 14-H ) :   0.9791
B(  6-C ,  7-C ) :   1.3118 B(  6-C , 11-C ) :   1.3994 B(  7-C ,  8-C ) :   1.4796
B(  7-C , 21-C ) :   0.2177 B(  8-C ,  9-C ) :   1.3822 B(  8-C , 15-H ) :   0.9934
B(  9-C , 10-C ) :   1.3925 B(  9-C , 16-H ) :   0.9957 B( 10-C , 11-C ) :   1.4034
B( 10-C , 17-H ) :   0.9946 B( 11-C , 18-H ) :   0.9939 B( 19-C , 20-C ) :   1.3994
B( 19-C , 21-C ) :   1.3118 B( 20-C , 22-C ) :   1.4034 B( 20-C , 23-H ) :   0.9939
B( 21-C , 24-C ) :   1.4796 B( 22-C , 25-C ) :   1.3925 B( 22-C , 26-H ) :   0.9946
B( 24-C , 25-C ) :   1.3822 B( 24-C , 27-H ) :   0.9934 B( 25-C , 28-H ) :   0.9957
B( 30-C , 31-C ) :   2.9859 B( 31-C , 32-C ) :   0.9145 B( 32-C , 33-C ) :   1.3752
B( 32-C , 34-C ) :   1.3752 B( 33-C , 35-C ) :   1.4034 B( 33-C , 36-H ) :   0.9985
B( 34-C , 37-C ) :   1.4037 B( 34-C , 38-H ) :   0.9985 B( 35-C , 39-C ) :   1.3879
B( 35-C , 40-H ) :   0.9974 B( 37-C , 39-C ) :   1.3876 B( 37-C , 41-H ) :   0.9974
B( 39-C , 60-N ) :   0.9252 B( 42-C , 44-C ) :   1.3083 B( 42-C , 45-C ) :   1.3405
B( 42-C , 60-N ) :   1.0608 B( 43-C , 46-C ) :   1.3083 B( 43-C , 47-C ) :   1.3405
B( 43-C , 60-N ) :   1.0607 B( 44-C , 48-C ) :   1.4545 B( 44-C , 49-H ) :   1.0089
B( 45-C , 47-C ) :   1.0977 B( 45-C , 50-C ) :   1.3064 B( 46-C , 51-C ) :   1.4545
B( 46-C , 52-H ) :   1.0089 B( 47-C , 53-C ) :   1.3064 B( 48-C , 54-C ) :   1.3299
B( 48-C , 55-H ) :   0.9959 B( 50-C , 54-C ) :   1.4801 B( 50-C , 56-H ) :   0.9988
B( 51-C , 57-C ) :   1.3299 B( 51-C , 58-H ) :   0.9959 B( 53-C , 57-C ) :   1.4801
B( 53-C , 59-H ) :   0.9988 B( 54-C , 62-C ) :   0.9135 B( 57-C , 61-C ) :   0.9135
B( 61-C , 75-C ) :   1.0248 B( 61-C , 79-C ) :   1.0745 B( 61-C , 83-C ) :   1.0244
B( 62-C , 63-C ) :   1.0248 B( 62-C , 67-C ) :   1.0745 B( 62-C , 71-C ) :   1.0244
B( 63-C , 64-H ) :   0.9752 B( 63-C , 65-H ) :   0.9739 B( 63-C , 66-H ) :   0.9744
B( 67-C , 68-H ) :   0.9704 B( 67-C , 69-H ) :   0.9608 B( 67-C , 70-H ) :   0.9608
B( 71-C , 72-H ) :   0.9743 B( 71-C , 73-H ) :   0.9738 B( 71-C , 74-H ) :   0.9753
B( 75-C , 76-H ) :   0.9752 B( 75-C , 77-H ) :   0.9739 B( 75-C , 78-H ) :   0.9744
B( 79-C , 80-H ) :   0.9607 B( 79-C , 81-H ) :   0.9704 B( 79-C , 82-H ) :   0.9609
B( 83-C , 84-H ) :   0.9743 B( 83-C , 85-H ) :   0.9738 B( 83-C , 86-H ) :   0.9753

MP2 TOTAL ENERGY:    -1977.784501751 Eh

-----------------------------------------------------------------------------
         ABSORPTION SPECTRUM VIA TRANSITION ELECTRIC DIPOLE MOMENTS
-----------------------------------------------------------------------------
State   Energy    Wavelength  fosc         T2        TX        TY        TZ
        (cm-1)      (nm)                 (au**2)    (au)      (au)      (au)
-----------------------------------------------------------------------------
   1   31072.9    321.8   0.109265763   1.15765   0.00019  -1.07593   0.00542
   2   35090.2    285.0   1.004914837   9.42800   3.07050   0.00223   0.00247
   3   35031.5    285.5   0.000660061   0.00620   0.07867  -0.00118  -0.00353
   4   38062.6    262.7   0.320634443   2.77324   1.66526  -0.00087  -0.01262
   5   39024.1    256.3   0.329410316   2.77895   0.00270   1.66578   0.06427
   6   36478.7    274.1   0.306083311   2.76233   1.66200   0.00874   0.00093
   7   38009.9    263.1   0.405053014   3.50825  -0.01080   1.87300   0.00040
   8   39228.6    254.9   0.000463506   0.00389  -0.06224   0.00303   0.00249
   9   39916.0    250.5   0.153262237   1.26405   0.00977  -1.11885  -0.11014
  10   39976.0    250.1   0.155710712   1.28231  -0.00973   1.12888  -0.08857
  11   43238.8    231.3   0.028182227   0.21457   0.46275   0.02092   0.00175
  12   42983.3    232.6   0.222103703   1.70111   0.03789  -1.29995  -0.09896
  13   42878.9    233.2   0.019651015   0.15087  -0.14229  -0.36044  -0.02662
  14   44006.9    227.2   0.008540245   0.06389  -0.25248   0.01152   0.00327
  15   43902.1    227.8   0.017569643   0.13175   0.36210   0.02183  -0.01261
  16   41992.1    238.1   0.008775133   0.06880  -0.03700   0.23389  -0.11280
  17   44821.8    223.1   0.026579404   0.19522   0.00171  -0.43853  -0.05393
  18   46268.8    216.1   0.014987944   0.10664  -0.32656  -0.00152   0.00074
  19   45937.6    217.7   0.253150179   1.81420  -0.00166  -1.34589   0.05267
  20   46340.6    215.8   0.869445582   6.17670  -0.00284  -2.48525   0.01470
  21   46473.3    215.2   1.704333973  12.07332   0.00178  -3.46969  -0.18587
  22   48192.7    207.5   0.839412863   5.73417   2.39459  -0.00129   0.00912
  23   48797.9    204.9   0.224409773   1.51397   0.00422   1.06559  -0.61519
  24   50878.1    196.5   0.000041043   0.00027  -0.00012  -0.01510   0.00613
  25   48758.1    205.1   0.024096940   0.16270  -0.06446   0.39499  -0.05031
  26   49923.6    200.3   0.115501277   0.76165  -0.87204  -0.03442   0.00432
  27   52475.4    190.6   0.004508750   0.02829   0.16785  -0.00954   0.00456
  28   49123.6    203.6   0.202710358   1.35851  -0.00460   0.90556  -0.73379
  29   50704.9    197.2   0.153000484   0.99339   0.99663   0.01052  -0.00313
  30   50423.5    198.3   0.001870166   0.01221  -0.02292   0.01464   0.10710
  31   50984.1    196.1   0.352050048   2.27324   0.00866  -1.50637   0.06323
  32   49324.5    202.7   0.000426541   0.00285  -0.05098   0.01575   0.00041
  33   49912.8    200.3   0.000273296   0.00180   0.03899   0.01664  -0.00230
  34   51048.4    195.9   0.244456364   1.57650  -1.25556   0.00101   0.00894
  35   53001.8    188.7   1.007560379   6.25830   2.50164   0.00653  -0.00643
  36   52391.2    190.9   1.100426887   6.91478  -2.62954   0.00396   0.01683
  37   51303.7    194.9   0.015357513   0.09855  -0.00508  -0.17585  -0.26000
  38   49928.3    200.3   0.009293240   0.06128   0.00443  -0.22443   0.10435
  39   53004.9    188.7   0.005218681   0.03241  -0.01644  -0.11430   0.13813
  40   53841.7    185.7   0.036935059   0.22584   0.47512  -0.00011   0.01002

FINAL SINGLE POINT ENERGY     -1975.653606062902

DIPOLE MOMENT
-------------
                                X             Y             Z
Electronic contribution:   -764.81476      -0.12567      -1.23450
Nuclear contribution   :    760.98124       0.12762       1.26625
                        -----------------------------------------
Total Dipole Moment    :     -3.83352       0.00195       0.03175
                        -----------------------------------------
Magnitude (a.u.)       :      3.83365
Magnitude (Debye)      :      9.74436

Rotational constants in cm-1:     0.003106     0.000590     0.000500
Rotational constants in MHz :    93.110247    17.673572    14.995213

                             ****ORCA TERMINATED NORMALLY****
TOTAL RUN TIME: 0 days 3 hours 19 minutes 4 seconds 674 msec
