                         Program Version 5.0.4 -  RELEASE  -
|  1> %maxcore 6000
|  2> %pal
|  3>  nprocs 8
|  4> end
|  5> ! RI-SCS-PBE-QIDH def2-SVP def2/J def2-SVP/C RIJCOSX CPCM TIGHTSCF
|  6>
|  7> %TDDFT
|  8>     DCORR      4
|  9>     NROOTS    40
| 10>     doscs true
| 11>     TDA       FALSE
| 12> END
| 13>
| 14> %CPCM
| 15>     SMD		TRUE
| 16>     SMDsolvent	"Acetonitrile"
| 17> END
| 18>
| 19> * xyz 0 1
| 20> Au                 -4.55610900   -0.00065700   -0.00742000
| 21> C                  -7.22581000    1.19989100    0.00366500
| 22> C                  -7.22686800   -1.19841200    0.02526000
| 23> C                  -8.62468400   -1.21246900    0.03707300
| 24> C                  -9.30875400    0.00179600    0.03062700
| 25> C                  -8.62362200    1.21536500    0.01368300
| 26> C                  -6.31258900    2.35092900   -0.01260700
| 27> C                  -4.91233800    2.08377800   -0.02103800
| 28> C                  -4.03073100    3.16317200   -0.03755100
| 29> C                  -4.50455500    4.48040500   -0.04537200
| 30> C                  -5.87658500    4.73454900   -0.03628100
| 31> C                  -6.77911900    3.67397100   -0.01984200
| 32> H                  -9.16746500   -2.15763800    0.05044200
| 33> H                 -10.40062400    0.00235800    0.03897900
| 34> H                  -9.16557800    2.16109200    0.00852800
| 35> H                  -2.95037500    2.98720800   -0.04490100
| 36> H                  -3.79628400    5.31345200   -0.05864300
| 37> H                  -6.24576900    5.76258400   -0.04220600
| 38> H                  -7.85301400    3.87861300   -0.01305900
| 39> C                  -6.31470300   -2.35038600    0.02780500
| 40> C                  -6.78246400   -3.67289900    0.04490100
| 41> C                  -4.91422200   -2.08473900    0.01291500
| 42> C                  -5.88092600   -4.73444300    0.04796700
| 43> H                  -7.85653800   -3.87638500    0.05631300
| 44> C                  -4.03362600   -3.16507900    0.01645300
| 45> C                  -4.50866400   -4.48178700    0.03387300
| 46> H                  -6.25106000   -5.76206300    0.06165200
| 47> H                  -2.95310100   -2.99029000    0.00606400
| 48> H                  -3.80115700   -5.31558400    0.03662800
| 49> N                  -6.60305800    0.00041700    0.00940600
| 50> C                  -2.57853500   -0.00180100   -0.01843800
| 51> C                  -1.34813500   -0.00248200   -0.02012500
| 52> C                   0.07667200   -0.00330700   -0.01956400
| 53> C                   0.80462800    0.81994600   -0.90326900
| 54> C                   0.80171100   -0.82692900    0.86626300
| 55> C                   2.19301300    0.81303300   -0.90817700
| 56> H                   0.26577800    1.46052700   -1.60480400
| 57> C                   2.18999800   -0.81962500    0.87629500
| 58> H                   0.26045900   -1.46745900    1.56599600
| 59> C                   2.90003800   -0.00291800   -0.01440900
| 60> H                   2.73833300    1.43568700   -1.62033400
| 61> H                   2.73277800   -1.44197600    1.59065300
| 62> C                   5.13017900   -1.12972200   -0.01493000
| 63> C                   5.12780800    1.12811300    0.00198500
| 64> C                   4.79428800   -2.48486500   -0.07171500
| 65> C                   6.48497100   -0.72070100   -0.00576700
| 66> C                   4.78862900    2.48255700    0.05565000
| 67> C                   6.48344900    0.72182400    0.00655100
| 68> C                   5.83116500   -3.41123200   -0.09215700
| 69> H                   3.75484700   -2.81707200   -0.10659600
| 70> C                   7.50720400   -1.68032400   -0.02511400
| 71> C                   5.82336700    3.41101000    0.08704100
| 72> H                   3.74821700    2.81265700    0.07988500
| 73> C                   7.50347700    1.68350800    0.03675600
| 74> C                   7.19623400   -3.04103700   -0.06189600
| 75> H                   5.56919400   -4.47217500   -0.13525100
| 76> H                   8.54544900   -1.34193300   -0.01524400
| 77> C                   7.18941600    3.04358200    0.07083200
| 78> H                   5.55884300    4.47141000    0.12773300
| 79> H                   8.54243700    1.34717700    0.03758300
| 80> N                   4.31049800   -0.00165500   -0.01068900
| 81> C                   8.25679100    4.14021400    0.09477500
| 82> C                   8.26601200   -4.13550300   -0.07468100
| 83> C                   8.11580700   -4.98114700   -1.34421600
| 84> H                   8.87453700   -5.77843600   -1.37196300
| 85> H                   7.13068800   -5.46648600   -1.40458300
| 86> H                   8.24218200   -4.37042000   -2.25119600
| 87> C                   9.67632800   -3.55430600   -0.04457300
| 88> H                  10.41917600   -4.36540600   -0.05285800
| 89> H                   9.88104100   -2.91615600   -0.91706500
| 90> H                   9.85868800   -2.95468300    0.85966600
| 91> C                   8.08535600   -5.03588800    1.15279500
| 92> H                   8.18763600   -4.46526500    2.08849800
| 93> H                   7.09971300   -5.52383800    1.16691700
| 94> H                   8.84456400   -5.83315000    1.16517000
| 95> C                   8.09064200    4.98676200    1.36171900
| 96> H                   8.84784700    5.78517900    1.39748400
| 97> H                   7.10424100    5.47080600    1.41025900
| 98> H                   8.20740200    4.37706200    2.27067500
| 99> C                   9.66852100    3.56183200    0.08113200
|100> H                   9.86237900    2.96192500   -0.82051900
|101> H                  10.40959800    4.37443100    0.09724200
|102> H                   9.86451800    2.92471300    0.95638000
|103> C                   8.08812900    5.03904600   -1.13554000
|104> H                   8.20281700    4.46782900   -2.06943900
|105> H                   7.10140500    5.52432100   -1.16162900
|106> H                   8.84534900    5.83828400   -1.13983900
|107> *
|108>
|109>                          ****END OF INPUT****

CARTESIAN COORDINATES (ANGSTROEM)
---------------------------------
  Au    -4.556109   -0.000657   -0.007420
  C     -7.225810    1.199891    0.003665
  C     -7.226868   -1.198412    0.025260
  C     -8.624684   -1.212469    0.037073
  C     -9.308754    0.001796    0.030627
  C     -8.623622    1.215365    0.013683
  C     -6.312589    2.350929   -0.012607
  C     -4.912338    2.083778   -0.021038
  C     -4.030731    3.163172   -0.037551
  C     -4.504555    4.480405   -0.045372
  C     -5.876585    4.734549   -0.036281
  C     -6.779119    3.673971   -0.019842
  H     -9.167465   -2.157638    0.050442
  H    -10.400624    0.002358    0.038979
  H     -9.165578    2.161092    0.008528
  H     -2.950375    2.987208   -0.044901
  H     -3.796284    5.313452   -0.058643
  H     -6.245769    5.762584   -0.042206
  H     -7.853014    3.878613   -0.013059
  C     -6.314703   -2.350386    0.027805
  C     -6.782464   -3.672899    0.044901
  C     -4.914222   -2.084739    0.012915
  C     -5.880926   -4.734443    0.047967
  H     -7.856538   -3.876385    0.056313
  C     -4.033626   -3.165079    0.016453
  C     -4.508664   -4.481787    0.033873
  H     -6.251060   -5.762063    0.061652
  H     -2.953101   -2.990290    0.006064
  H     -3.801157   -5.315584    0.036628
  N     -6.603058    0.000417    0.009406
  C     -2.578535   -0.001801   -0.018438
  C     -1.348135   -0.002482   -0.020125
  C      0.076672   -0.003307   -0.019564
  C      0.804628    0.819946   -0.903269
  C      0.801711   -0.826929    0.866263
  C      2.193013    0.813033   -0.908177
  H      0.265778    1.460527   -1.604804
  C      2.189998   -0.819625    0.876295
  H      0.260459   -1.467459    1.565996
  C      2.900038   -0.002918   -0.014409
  H      2.738333    1.435687   -1.620334
  H      2.732778   -1.441976    1.590653
  C      5.130179   -1.129722   -0.014930
  C      5.127808    1.128113    0.001985
  C      4.794288   -2.484865   -0.071715
  C      6.484971   -0.720701   -0.005767
  C      4.788629    2.482557    0.055650
  C      6.483449    0.721824    0.006551
  C      5.831165   -3.411232   -0.092157
  H      3.754847   -2.817072   -0.106596
  C      7.507204   -1.680324   -0.025114
  C      5.823367    3.411010    0.087041
  H      3.748217    2.812657    0.079885
  C      7.503477    1.683508    0.036756
  C      7.196234   -3.041037   -0.061896
  H      5.569194   -4.472175   -0.135251
  H      8.545449   -1.341933   -0.015244
  C      7.189416    3.043582    0.070832
  H      5.558843    4.471410    0.127733
  H      8.542437    1.347177    0.037583
  N      4.310498   -0.001655   -0.010689
  C      8.256791    4.140214    0.094775
  C      8.266012   -4.135503   -0.074681
  C      8.115807   -4.981147   -1.344216
  H      8.874537   -5.778436   -1.371963
  H      7.130688   -5.466486   -1.404583
  H      8.242182   -4.370420   -2.251196
  C      9.676328   -3.554306   -0.044573
  H     10.419176   -4.365406   -0.052858
  H      9.881041   -2.916156   -0.917065
  H      9.858688   -2.954683    0.859666
  C      8.085356   -5.035888    1.152795
  H      8.187636   -4.465265    2.088498
  H      7.099713   -5.523838    1.166917
  H      8.844564   -5.833150    1.165170
  C      8.090642    4.986762    1.361719
  H      8.847847    5.785179    1.397484
  H      7.104241    5.470806    1.410259
  H      8.207402    4.377062    2.270675
  C      9.668521    3.561832    0.081132
  H      9.862379    2.961925   -0.820519
  H     10.409598    4.374431    0.097242
  H      9.864518    2.924713    0.956380
  C      8.088129    5.039046   -1.135540
  H      8.202817    4.467829   -2.069439
  H      7.101405    5.524321   -1.161629
  H      8.845349    5.838284   -1.139839

 Total Charge           Charge          ....    0
 Multiplicity           Mult            ....    1
 Number of Electrons    NEL             ....  342
 Basis Dimension        Dim             ....  885

ORBITAL ENERGIES
----------------

  NO   OCC          E(Eh)            E(eV)
   0   2.0000     -15.158652      -412.4879
   1   2.0000     -15.139657      -411.9710
   2   2.0000     -10.910360      -296.8860
   3   2.0000     -10.910345      -296.8856
   4   2.0000     -10.886461      -296.2357
   5   2.0000     -10.871457      -295.8274
   6   2.0000     -10.871436      -295.8268
   7   2.0000     -10.868054      -295.7348
   8   2.0000     -10.860866      -295.5392
   9   2.0000     -10.850313      -295.2520
  10   2.0000     -10.850304      -295.2518
  11   2.0000     -10.849181      -295.2212
  12   2.0000     -10.849165      -295.2208
  13   2.0000     -10.843349      -295.0625
  14   2.0000     -10.843330      -295.0620
  15   2.0000     -10.841355      -295.0083
  16   2.0000     -10.841314      -295.0072
  17   2.0000     -10.840757      -294.9920
  18   2.0000     -10.840754      -294.9919
  19   2.0000     -10.839302      -294.9524
  20   2.0000     -10.839287      -294.9520
  21   2.0000     -10.836317      -294.8712
  22   2.0000     -10.836315      -294.8711
  23   2.0000     -10.832608      -294.7703
  24   2.0000     -10.832364      -294.7636
  25   2.0000     -10.832363      -294.7636
  26   2.0000     -10.831871      -294.7502
  27   2.0000     -10.831359      -294.7363
  28   2.0000     -10.831261      -294.7336
  29   2.0000     -10.831258      -294.7335
  30   2.0000     -10.831200      -294.7319
  31   2.0000     -10.831185      -294.7315
  32   2.0000     -10.830648      -294.7169
  33   2.0000     -10.830640      -294.7167
  34   2.0000     -10.829832      -294.6947
  35   2.0000     -10.829804      -294.6940
  36   2.0000     -10.829032      -294.6729
  37   2.0000     -10.829022      -294.6727
  38   2.0000     -10.828165      -294.6494
  39   2.0000     -10.828161      -294.6492
  40   2.0000     -10.824176      -294.5408
  41   2.0000     -10.804320      -294.0005
  42   2.0000     -10.804312      -294.0003
  43   2.0000     -10.804257      -293.9988
  44   2.0000     -10.804251      -293.9986
  45   2.0000     -10.803066      -293.9664
  46   2.0000     -10.803063      -293.9663
  47   2.0000      -4.616442      -125.6198
  48   2.0000      -2.706366       -73.6440
  49   2.0000      -2.697790       -73.4106
  50   2.0000      -2.681528       -72.9681
  51   2.0000      -1.201986       -32.7077
  52   2.0000      -1.197569       -32.5875
  53   2.0000      -1.068534       -29.0763
  54   2.0000      -1.058077       -28.7918
  55   2.0000      -1.045049       -28.4372
  56   2.0000      -1.044524       -28.4229
  57   2.0000      -1.041291       -28.3350
  58   2.0000      -1.004303       -27.3285
  59   2.0000      -1.000609       -27.2279
  60   2.0000      -0.993517       -27.0350
  61   2.0000      -0.990783       -26.9606
  62   2.0000      -0.961600       -26.1665
  63   2.0000      -0.943755       -25.6809
  64   2.0000      -0.930627       -25.3237
  65   2.0000      -0.928985       -25.2790
  66   2.0000      -0.913672       -24.8623
  67   2.0000      -0.913650       -24.8617
  68   2.0000      -0.910063       -24.7641
  69   2.0000      -0.902014       -24.5451
  70   2.0000      -0.896655       -24.3992
  71   2.0000      -0.882626       -24.0175
  72   2.0000      -0.869428       -23.6583
  73   2.0000      -0.835777       -22.7427
  74   2.0000      -0.830698       -22.6044
  75   2.0000      -0.830697       -22.6044
  76   2.0000      -0.830395       -22.5962
  77   2.0000      -0.821803       -22.3624
  78   2.0000      -0.807741       -21.9798
  79   2.0000      -0.801359       -21.8061
  80   2.0000      -0.772699       -21.0262
  81   2.0000      -0.767573       -20.8867
  82   2.0000      -0.761355       -20.7175
  83   2.0000      -0.751261       -20.4428
  84   2.0000      -0.740932       -20.1618
  85   2.0000      -0.732501       -19.9324
  86   2.0000      -0.727560       -19.7979
  87   2.0000      -0.722872       -19.6704
  88   2.0000      -0.712659       -19.3924
  89   2.0000      -0.687009       -18.6945
  90   2.0000      -0.683481       -18.5985
  91   2.0000      -0.670693       -18.2505
  92   2.0000      -0.666107       -18.1257
  93   2.0000      -0.659845       -17.9553
  94   2.0000      -0.642718       -17.4892
  95   2.0000      -0.640265       -17.4225
  96   2.0000      -0.633809       -17.2468
  97   2.0000      -0.630237       -17.1496
  98   2.0000      -0.606582       -16.5059
  99   2.0000      -0.603367       -16.4185
 100   2.0000      -0.599636       -16.3169
 101   2.0000      -0.597434       -16.2570
 102   2.0000      -0.593217       -16.1423
 103   2.0000      -0.578727       -15.7480
 104   2.0000      -0.576349       -15.6833
 105   2.0000      -0.574544       -15.6341
 106   2.0000      -0.569416       -15.4946
 107   2.0000      -0.565041       -15.3755
 108   2.0000      -0.564532       -15.3617
 109   2.0000      -0.561246       -15.2723
 110   2.0000      -0.551385       -15.0039
 111   2.0000      -0.550000       -14.9663
 112   2.0000      -0.546803       -14.8793
 113   2.0000      -0.546520       -14.8716
 114   2.0000      -0.546261       -14.8645
 115   2.0000      -0.542538       -14.7632
 116   2.0000      -0.541095       -14.7239
 117   2.0000      -0.536274       -14.5927
 118   2.0000      -0.535050       -14.5594
 119   2.0000      -0.533651       -14.5214
 120   2.0000      -0.527792       -14.3620
 121   2.0000      -0.521652       -14.1949
 122   2.0000      -0.521230       -14.1834
 123   2.0000      -0.520928       -14.1752
 124   2.0000      -0.519395       -14.1335
 125   2.0000      -0.512458       -13.9447
 126   2.0000      -0.505838       -13.7645
 127   2.0000      -0.502000       -13.6601
 128   2.0000      -0.496084       -13.4991
 129   2.0000      -0.496002       -13.4969
 130   2.0000      -0.488979       -13.3058
 131   2.0000      -0.488164       -13.2836
 132   2.0000      -0.483908       -13.1678
 133   2.0000      -0.482418       -13.1273
 134   2.0000      -0.476133       -12.9562
 135   2.0000      -0.468942       -12.7606
 136   2.0000      -0.468922       -12.7600
 137   2.0000      -0.467851       -12.7309
 138   2.0000      -0.465114       -12.6564
 139   2.0000      -0.459853       -12.5132
 140   2.0000      -0.455893       -12.4055
 141   2.0000      -0.454797       -12.3756
 142   2.0000      -0.454589       -12.3700
 143   2.0000      -0.453929       -12.3520
 144   2.0000      -0.447631       -12.1807
 145   2.0000      -0.446989       -12.1632
 146   2.0000      -0.445703       -12.1282
 147   2.0000      -0.433578       -11.7983
 148   2.0000      -0.431629       -11.7452
 149   2.0000      -0.425823       -11.5872
 150   2.0000      -0.416975       -11.3465
 151   2.0000      -0.416218       -11.3259
 152   2.0000      -0.415991       -11.3197
 153   2.0000      -0.412399       -11.2220
 154   2.0000      -0.408063       -11.1039
 155   2.0000      -0.404057       -10.9949
 156   2.0000      -0.393291       -10.7020
 157   2.0000      -0.390185       -10.6175
 158   2.0000      -0.383470       -10.4348
 159   2.0000      -0.359113        -9.7720
 160   2.0000      -0.354240        -9.6394
 161   2.0000      -0.333518        -9.0755
 162   2.0000      -0.329630        -8.9697
 163   2.0000      -0.323870        -8.8129
 164   2.0000      -0.321754        -8.7554
 165   2.0000      -0.321389        -8.7454
 166   2.0000      -0.317265        -8.6332
 167   2.0000      -0.298162        -8.1134
 168   2.0000      -0.286566        -7.7979
 169   2.0000      -0.273473        -7.4416
 170   2.0000      -0.257118        -6.9965
 171   0.0000      -0.021556        -0.5866
 172   0.0000       0.001415         0.0385
 173   0.0000       0.023026         0.6266
 174   0.0000       0.027449         0.7469
 175   0.0000       0.033908         0.9227

MULLIKEN ATOMIC CHARGES
-----------------------
   0 Au:    0.698656
   1 C :    0.294951
   2 C :    0.294978
   3 C :   -0.114841
   4 C :    0.077306
   5 C :   -0.114845
   6 C :   -0.103151
   7 C :   -0.183937
   8 C :   -0.129798
   9 C :   -0.041283
  10 C :   -0.069651
  11 C :   -0.044333
  12 H :    0.099651
  13 H :    0.103896
  14 H :    0.099651
  15 H :    0.068864
  16 H :    0.082204
  17 H :    0.079003
  18 H :    0.082740
  19 C :   -0.103108
  20 C :   -0.044381
  21 C :   -0.183941
  22 C :   -0.069677
  23 H :    0.082747
  24 C :   -0.129822
  25 C :   -0.041243
  26 H :    0.079002
  27 H :    0.068874
  28 H :    0.082197
  29 N :   -0.563470
  30 C :   -0.277396
  31 C :   -0.091669
  32 C :   -0.125374
  33 C :   -0.010580
  34 C :   -0.010653
  35 C :   -0.065209
  36 H :    0.078602
  37 C :   -0.065145
  38 H :    0.078613
  39 C :    0.162211
  40 H :    0.088085
  41 H :    0.088096
  42 C :    0.226363
  43 C :    0.226390
  44 C :   -0.120551
  45 C :   -0.053669
  46 C :   -0.120595
  47 C :   -0.053571
  48 C :   -0.063508
  49 H :    0.070200
  50 C :   -0.074427
  51 C :   -0.063490
  52 H :    0.070186
  53 C :   -0.074413
  54 C :   -0.024650
  55 H :    0.077987
  56 H :    0.061162
  57 C :   -0.024686
  58 H :    0.077971
  59 H :    0.061155
  60 N :   -0.487566
  61 C :   -0.441097
  62 C :   -0.441141
  63 C :   -0.012066
  64 H :    0.054553
  65 H :    0.056236
  66 H :    0.053428
  67 C :    0.004268
  68 H :    0.057269
  69 H :    0.058302
  70 H :    0.058235
  71 C :   -0.011568
  72 H :    0.053177
  73 H :    0.056008
  74 H :    0.054736
  75 C :   -0.012231
  76 H :    0.054543
  77 H :    0.056275
  78 H :    0.053432
  79 C :    0.004245
  80 H :    0.058271
  81 H :    0.057276
  82 H :    0.058275
  83 C :   -0.011410
  84 H :    0.053173
  85 H :    0.055966
  86 H :    0.054738
Sum of atomic charges:   -0.0000000

LOEWDIN ATOMIC CHARGES
----------------------
   0 Au:    0.227620
   1 C :    0.099114
   2 C :    0.099119
   3 C :   -0.043474
   4 C :    0.055968
   5 C :   -0.043478
   6 C :   -0.068395
   7 C :   -0.142635
   8 C :   -0.044062
   9 C :   -0.020096
  10 C :   -0.045075
  11 C :   -0.010734
  12 H :    0.060447
  13 H :    0.064539
  14 H :    0.060446
  15 H :    0.044392
  16 H :    0.047592
  17 H :    0.047283
  18 H :    0.050175
  19 C :   -0.068393
  20 C :   -0.010735
  21 C :   -0.142631
  22 C :   -0.045077
  23 H :    0.050178
  24 C :   -0.044069
  25 C :   -0.020092
  26 H :    0.047283
  27 H :    0.044392
  28 H :    0.047591
  29 N :   -0.037055
  30 C :   -0.177203
  31 C :   -0.103944
  32 C :   -0.068381
  33 C :   -0.006558
  34 C :   -0.006522
  35 C :   -0.036102
  36 H :    0.052329
  37 C :   -0.036093
  38 H :    0.052330
  39 C :    0.028210
  40 H :    0.053840
  41 H :    0.053834
  42 C :    0.035738
  43 C :    0.035776
  44 C :   -0.064757
  45 C :   -0.064925
  46 C :   -0.064793
  47 C :   -0.064931
  48 C :   -0.029053
  49 H :    0.047451
  50 C :   -0.028969
  51 C :   -0.029044
  52 H :    0.047438
  53 C :   -0.028960
  54 C :   -0.041696
  55 H :    0.043086
  56 H :    0.044501
  57 C :   -0.041706
  58 H :    0.043083
  59 H :    0.044499
  60 N :   -0.023250
  61 C :   -0.063278
  62 C :   -0.063283
  63 C :   -0.044984
  64 H :    0.026771
  65 H :    0.025701
  66 H :    0.026074
  67 C :   -0.049192
  68 H :    0.029301
  69 H :    0.026720
  70 H :    0.026711
  71 C :   -0.044929
  72 H :    0.026024
  73 H :    0.025631
  74 H :    0.026770
  75 C :   -0.044997
  76 H :    0.026775
  77 H :    0.025705
  78 H :    0.026075
  79 C :   -0.049192
  80 H :    0.026707
  81 H :    0.029302
  82 H :    0.026723
  83 C :   -0.044917
  84 H :    0.026022
  85 H :    0.025625
  86 H :    0.026766

  Mayer bond orders larger than 0.100000
B(  0-Au,  7-C ) :   0.5644 B(  0-Au, 21-C ) :   0.5644 B(  0-Au, 29-N ) :   0.4345
B(  0-Au, 30-C ) :   0.7203 B(  1-C ,  5-C ) :   1.4270 B(  1-C ,  6-C ) :   1.0368
B(  1-C , 29-N ) :   1.2209 B(  2-C ,  3-C ) :   1.4270 B(  2-C , 19-C ) :   1.0368
B(  2-C , 29-N ) :   1.2209 B(  3-C ,  4-C ) :   1.4068 B(  3-C , 12-H ) :   0.9752
B(  4-C ,  5-C ) :   1.4068 B(  4-C , 13-H ) :   0.9757 B(  5-C , 14-H ) :   0.9752
B(  6-C ,  7-C ) :   1.3203 B(  6-C , 11-C ) :   1.4050 B(  7-C ,  8-C ) :   1.5002
B(  7-C , 21-C ) :   0.2249 B(  8-C ,  9-C ) :   1.3860 B(  8-C , 15-H ) :   0.9928
B(  9-C , 10-C ) :   1.3921 B(  9-C , 16-H ) :   0.9935 B( 10-C , 11-C ) :   1.4108
B( 10-C , 17-H ) :   0.9933 B( 11-C , 18-H ) :   0.9880 B( 19-C , 20-C ) :   1.4049
B( 19-C , 21-C ) :   1.3203 B( 20-C , 22-C ) :   1.4108 B( 20-C , 23-H ) :   0.9880
B( 21-C , 24-C ) :   1.5002 B( 22-C , 25-C ) :   1.3921 B( 22-C , 26-H ) :   0.9933
B( 24-C , 25-C ) :   1.3860 B( 24-C , 27-H ) :   0.9928 B( 25-C , 28-H ) :   0.9935
B( 30-C , 31-C ) :   3.1077 B( 31-C , 32-C ) :   0.9784 B( 32-C , 33-C ) :   1.3584
B( 32-C , 34-C ) :   1.3583 B( 33-C , 35-C ) :   1.4180 B( 33-C , 36-H ) :   0.9958
B( 34-C , 37-C ) :   1.4183 B( 34-C , 38-H ) :   0.9958 B( 35-C , 39-C ) :   1.3818
B( 35-C , 40-H ) :   0.9952 B( 37-C , 39-C ) :   1.3815 B( 37-C , 41-H ) :   0.9951
B( 39-C , 60-N ) :   0.9144 B( 42-C , 44-C ) :   1.3202 B( 42-C , 45-C ) :   1.3249
B( 42-C , 60-N ) :   1.0361 B( 43-C , 46-C ) :   1.3202 B( 43-C , 47-C ) :   1.3249
B( 43-C , 60-N ) :   1.0360 B( 44-C , 48-C ) :   1.4666 B( 44-C , 49-H ) :   1.0048
B( 45-C , 47-C ) :   1.1363 B( 45-C , 50-C ) :   1.3332 B( 46-C , 51-C ) :   1.4666
B( 46-C , 52-H ) :   1.0048 B( 47-C , 53-C ) :   1.3332 B( 48-C , 54-C ) :   1.3326
B( 48-C , 55-H ) :   0.9927 B( 50-C , 54-C ) :   1.4883 B( 50-C , 56-H ) :   0.9955
B( 51-C , 57-C ) :   1.3326 B( 51-C , 58-H ) :   0.9927 B( 53-C , 57-C ) :   1.4883
B( 53-C , 59-H ) :   0.9956 B( 54-C , 62-C ) :   0.9073 B( 57-C , 61-C ) :   0.9073
B( 61-C , 75-C ) :   1.0082 B( 61-C , 79-C ) :   1.0539 B( 61-C , 83-C ) :   1.0077
B( 62-C , 63-C ) :   1.0082 B( 62-C , 67-C ) :   1.0539 B( 62-C , 71-C ) :   1.0077
B( 63-C , 64-H ) :   0.9773 B( 63-C , 65-H ) :   0.9759 B( 63-C , 66-H ) :   0.9766
B( 67-C , 68-H ) :   0.9731 B( 67-C , 69-H ) :   0.9658 B( 67-C , 70-H ) :   0.9657
B( 71-C , 72-H ) :   0.9765 B( 71-C , 73-H ) :   0.9758 B( 71-C , 74-H ) :   0.9773
B( 75-C , 76-H ) :   0.9773 B( 75-C , 77-H ) :   0.9759 B( 75-C , 78-H ) :   0.9766
B( 79-C , 80-H ) :   0.9657 B( 79-C , 81-H ) :   0.9731 B( 79-C , 82-H ) :   0.9658
B( 83-C , 84-H ) :   0.9765 B( 83-C , 85-H ) :   0.9758 B( 83-C , 86-H ) :   0.9773

MP2 TOTAL ENERGY:    -1979.109773177 Eh

-----------------------------------------------------------------------------
         ABSORPTION SPECTRUM VIA TRANSITION ELECTRIC DIPOLE MOMENTS
-----------------------------------------------------------------------------
State   Energy    Wavelength  fosc         T2        TX        TY        TZ
        (cm-1)      (nm)                 (au**2)    (au)      (au)      (au)
-----------------------------------------------------------------------------
   1   29058.5    344.1   0.110747484   1.25469   0.00015  -1.12011   0.00585
   2   32737.7    305.5   0.886029604   8.90997  -2.98496  -0.00121  -0.00182
   3   31664.7    315.8   0.047192284   0.49065   0.70045   0.00264   0.00375
   4   36687.7    272.6   0.337364974   3.02730   1.73987  -0.00069  -0.01283
   5   33729.2    296.5   0.259088623   2.52882   1.59017   0.01356   0.00161
   6   37525.0    266.5   0.318120504   2.79092   0.00550  -1.66943  -0.06233
   7   34712.7    288.1   0.365964921   3.47077   0.00718  -1.86299  -0.00180
   8   35654.3    280.5   0.000432650   0.00399  -0.06302   0.00381   0.00301
   9   37713.5    265.2   0.190003427   1.65859   0.00923  -1.28696  -0.04735
  10   36100.4    277.0   0.006664672   0.06078   0.00214  -0.19599   0.14953
  11   38853.0    257.4   0.009018496   0.07642   0.27636   0.00631   0.00198
  12   39380.7    253.9   0.000363910   0.00304   0.05378   0.01226  -0.00042
  13   40527.0    246.7   0.002094346   0.01701   0.12976   0.01308   0.00199
  14   39821.4    251.1   0.186815164   1.54444   0.00043  -1.23976  -0.08626
  15   36803.3    271.7   0.001940578   0.01736  -0.00039   0.08786  -0.09818
  16   39645.7    252.2   0.011071363   0.09193   0.30320  -0.00177  -0.00132
  17   41918.1    238.6   0.082441242   0.64747  -0.80461   0.00830   0.00139
  18   42026.4    237.9   0.017358565   0.13598   0.00857  -0.36647  -0.04001
  19   43374.4    230.6   0.337040463   2.55814  -0.00518  -1.59847   0.05494
  20   40751.4    245.4   0.299446659   2.41909   0.00010  -1.54851  -0.14568
  21   42738.5    234.0   0.996720567   7.67767   0.00159   2.77083   0.01346
  22   45019.0    222.1   0.007023432   0.05136   0.22661   0.00305   0.00079
  23   42810.7    233.6   0.790038649   6.07535  -0.00424   2.46119   0.13363
  24   39787.2    251.3   0.060199697   0.49811   0.00126   0.70391   0.05124
  25   44782.2    223.3   0.538352434   3.95764   1.98934  -0.00847   0.01031
  26   45183.4    221.3   0.020761852   0.15127   0.00512   0.38122  -0.07693
  27   44318.1    225.6   0.227481587   1.68982   0.01594   1.22823  -0.42545
  28   46008.7    217.4   0.002509263   0.01795   0.13367   0.00864  -0.00336
  29   44761.8    223.4   0.154079454   1.13322   0.00503  -0.83021   0.66629
  30   44259.1    225.9   0.003295594   0.02451   0.15652  -0.00367  -0.00093
  31   46683.4    214.2   0.166044997   1.17095   0.90889   0.58559   0.04431
  32   46749.6    213.9   0.235209192   1.65635   1.21095  -0.43385  -0.04138
  33   49332.4    202.7   0.000077213   0.00052  -0.02194  -0.00322   0.00487
  34   47160.0    212.0   0.004839507   0.03378   0.18331   0.01339  -0.00114
  35   47727.3    209.5   0.262502593   1.81068  -0.00235   1.34554  -0.01440
  36   51534.7    194.0   0.276254276   1.76476  -1.32843   0.00166   0.00497
  37   49655.2    201.4   0.146446255   0.97093  -0.98534   0.00633   0.00104
  38   49469.5    202.1   0.348552822   2.31957  -1.52298   0.00374   0.00970
  39   50549.5    197.8   0.997258745   6.49481   2.54847   0.00430  -0.00905
  40   44452.7    225.0   0.000228753   0.00169   0.04116  -0.00031  -0.00021

FINAL SINGLE POINT ENERGY     -1976.458447560355

DIPOLE MOMENT
-------------
                                X             Y             Z
Electronic contribution:   -764.76752      -0.12560      -1.23421
Nuclear contribution   :    760.98124       0.12762       1.26625
                        -----------------------------------------
Total Dipole Moment    :     -3.78628       0.00202       0.03204
                        -----------------------------------------
Magnitude (a.u.)       :      3.78642
Magnitude (Debye)      :      9.62431

Rotational constants in cm-1:     0.003106     0.000590     0.000500
Rotational constants in MHz :    93.110247    17.673572    14.995213

                             ****ORCA TERMINATED NORMALLY****
TOTAL RUN TIME: 0 days 3 hours 8 minutes 28 seconds 276 msec
