                         Program Version 5.0.4 -  RELEASE  -
|  1> %maxcore 12000
|  2> %pal
|  3>  nprocs 8
|  4> end
|  5> ! RI-B2GP-PLYP def2-SVP def2/J def2-SVP/C RIJCOSX CPCM TIGHTSCF
|  6>
|  7> %TDDFT
|  8>     DCORR      4
|  9>     NROOTS    40
| 10>     TDA       FALSE
| 11> END
| 12>
| 13> %CPCM
| 14>     SMD		TRUE
| 15>     SMDsolvent	"Acetonitrile"
| 16> END
| 17>
| 18> * xyz 1 1
| 19> Ir                 -0.00454100    0.09341600   -0.03280600
| 20> S                   0.23436200   -3.22247800   -3.13821500
| 21> S                   0.11030600   -3.51117400    2.74490000
| 22> N                   1.72557100    0.01622900   -1.28168100
| 23> N                  -1.71173700   -0.29091200    1.19620800
| 24> N                   1.10410800    1.94004500    2.32414600
| 25> N                  -1.31047900    2.18672200   -2.06454100
| 26> C                   2.70862300    0.98967900   -1.36212600
| 27> C                   2.45549800    2.29931100   -0.89872300
| 28> H                   1.47400300    2.54681700   -0.49925200
| 29> C                   3.41629400    3.28795600   -1.00038700
| 30> H                   3.18715600    4.29797600   -0.65263500
| 31> C                   4.66896800    3.00232700   -1.56264100
| 32> H                   5.42979900    3.78153300   -1.63858900
| 33> C                   4.92922200    1.73153700   -2.04018600
| 34> H                   5.89741400    1.52457200   -2.49759500
| 35> C                   3.96702900    0.70353700   -1.96344800
| 36> C                   4.21005500   -0.63299300   -2.45624200
| 37> C                   5.47557700   -1.05516600   -2.91214000
| 38> H                   6.31359400   -0.35772200   -2.90760000
| 39> C                   5.68136100   -2.35131200   -3.34689200
| 40> H                   6.67231800   -2.65774300   -3.68867700
| 41> C                   4.62842200   -3.27799200   -3.32430100
| 42> H                   4.79804000   -4.31179000   -3.63099800
| 43> C                   3.37599700   -2.88730700   -2.89133300
| 44> H                   2.59299000   -3.64151600   -2.82728200
| 45> C                   3.13189300   -1.56159300   -2.46683200
| 46> C                   1.84885200   -1.14915600   -1.94673300
| 47> C                  -0.50526500   -1.39561600   -1.38836400
| 48> C                  -1.69414800   -2.10422700   -1.74543500
| 49> C                  -3.02900700   -1.88869200   -1.33836400
| 50> H                  -3.26486000   -1.06285600   -0.66475100
| 51> C                  -4.04223700   -2.70288100   -1.81769100
| 52> H                  -5.07237900   -2.53225300   -1.49542200
| 53> C                  -3.75980600   -3.74170300   -2.72344700
| 54> H                  -4.57022900   -4.37609200   -3.08974600
| 55> C                  -2.46424700   -3.96393700   -3.17430500
| 56> H                  -2.25171200   -4.75747100   -3.89393500
| 57> C                  -1.44242300   -3.14257700   -2.68770300
| 58> C                   0.60774500   -1.87701300   -2.05710900
| 59> C                  -2.78786800    0.56179100    1.38709600
| 60> C                  -2.66534400    1.94031300    1.10721800
| 61> H                  -1.71121300    2.33649600    0.76543400
| 62> C                  -3.72149800    2.80637600    1.32010000
| 63> H                  -3.59320300    3.87130800    1.11227800
| 64> C                  -4.94126900    2.32613600    1.81890800
| 65> H                  -5.77661300    3.00930400    1.98420300
| 66> C                  -5.07352100    0.98414700    2.12323500
| 67> H                  -6.01563000    0.62336300    2.53799700
| 68> C                  -4.01282200    0.07596100    1.92715800
| 69> C                  -4.12078500   -1.33117500    2.23840500
| 70> C                  -5.34071400   -1.93943100    2.59757500
| 71> H                  -6.24949700   -1.33973800    2.65433900
| 72> C                  -5.41144200   -3.29581400    2.85708100
| 73> H                  -6.36920500   -3.74693000    3.12531100
| 74> C                  -4.26397100   -4.09597100    2.75068500
| 75> H                  -4.32609600   -5.17277300    2.91872900
| 76> C                  -3.05392000   -3.52345700    2.40899200
| 77> H                  -2.19168100   -4.17547800    2.27372400
| 78> C                  -2.94986100   -2.13583100    2.16192200
| 79> C                  -1.71531600   -1.53189400    1.71985700
| 80> C                   0.64770800   -1.48320300    1.14983400
| 81> C                   1.90643700   -2.08463200    1.45983300
| 82> C                   3.20959200   -1.69176500    1.08463800
| 83> H                   3.35197100   -0.80109900    0.47019800
| 84> C                   4.30687300   -2.41504500    1.52295300
| 85> H                   5.31256900   -2.10608500    1.22776500
| 86> C                   4.14057700   -3.53682200    2.35558600
| 87> H                   5.01666400   -4.09570300    2.69251900
| 88> C                   2.87626600   -3.93814300    2.76995100
| 89> H                   2.75218700   -4.79740400    3.43233800
| 90> C                   1.76954900   -3.20950400    2.32326900
| 91> C                  -0.40582400   -2.13621100    1.76495400
| 92> C                   0.70006100    1.32809300    1.40618500
| 93> C                   1.59522800    2.65929000    3.38664600
| 94> C                   2.26678000    1.95956500    4.41199400
| 95> C                   2.75906300    2.71587100    5.47827200
| 96> H                   3.28426600    2.20481900    6.28881500
| 97> C                   2.58759600    4.09912400    5.51546200
| 98> H                   2.98321300    4.67030900    6.35844800
| 99> C                   1.91437600    4.76050700    4.48911300
|100> H                   1.78070300    5.84434300    4.52807600
|101> C                   1.39759200    4.05636600    3.39895100
|102> C                   2.43007200    0.47926300    4.33414100
|103> H                   2.93723400    0.08524800    5.22257000
|104> H                   3.01817300    0.18594400    3.45014700
|105> H                   1.45810300   -0.03110700    4.24104300
|106> C                   0.64821400    4.72416700    2.29583500
|107> H                   0.66955900    5.81527400    2.39993800
|108> H                  -0.40766200    4.40967200    2.28602500
|109> H                   1.05696400    4.46640200    1.30711100
|110> C                  -0.83034600    1.45365400   -1.28196900
|111> C                  -1.88243700    3.09140800   -2.92555600
|112> C                  -1.71330500    4.46617900   -2.65426700
|113> C                  -2.30873000    5.36558300   -3.54172100
|114> H                  -2.19753400    6.43737700   -3.36016400
|115> C                  -3.03168400    4.91175700   -4.64437700
|116> H                  -3.48738800    5.63354500   -5.32615800
|117> C                  -3.17822800    3.54642600   -4.88636800
|118> H                  -3.74606800    3.19931600   -5.75304100
|119> C                  -2.60733900    2.60029200   -4.03165200
|120> C                  -0.91614800    4.91062800   -1.47455500
|121> H                  -1.27382000    4.44708600   -0.54231200
|122> H                  -0.95545000    5.99915700   -1.35106100
|123> H                   0.14213600    4.62239500   -1.57784100
|124> C                  -2.74805200    1.13215900   -4.25040900
|125> H                  -3.30132500    0.91627400   -5.17161300
|126> H                  -3.28105200    0.65139400   -3.41508000
|127> H                  -1.76752800    0.63462700   -4.31651100
|128> *
|129>
|130>                          ****END OF INPUT****

CARTESIAN COORDINATES (ANGSTROEM)
---------------------------------
  Ir    -0.004541    0.093416   -0.032806
  S      0.234362   -3.222478   -3.138215
  S      0.110306   -3.511174    2.744900
  N      1.725571    0.016229   -1.281681
  N     -1.711737   -0.290912    1.196208
  N      1.104108    1.940045    2.324146
  N     -1.310479    2.186722   -2.064541
  C      2.708623    0.989679   -1.362126
  C      2.455498    2.299311   -0.898723
  H      1.474003    2.546817   -0.499252
  C      3.416294    3.287956   -1.000387
  H      3.187156    4.297976   -0.652635
  C      4.668968    3.002327   -1.562641
  H      5.429799    3.781533   -1.638589
  C      4.929222    1.731537   -2.040186
  H      5.897414    1.524572   -2.497595
  C      3.967029    0.703537   -1.963448
  C      4.210055   -0.632993   -2.456242
  C      5.475577   -1.055166   -2.912140
  H      6.313594   -0.357722   -2.907600
  C      5.681361   -2.351312   -3.346892
  H      6.672318   -2.657743   -3.688677
  C      4.628422   -3.277992   -3.324301
  H      4.798040   -4.311790   -3.630998
  C      3.375997   -2.887307   -2.891333
  H      2.592990   -3.641516   -2.827282
  C      3.131893   -1.561593   -2.466832
  C      1.848852   -1.149156   -1.946733
  C     -0.505265   -1.395616   -1.388364
  C     -1.694148   -2.104227   -1.745435
  C     -3.029007   -1.888692   -1.338364
  H     -3.264860   -1.062856   -0.664751
  C     -4.042237   -2.702881   -1.817691
  H     -5.072379   -2.532253   -1.495422
  C     -3.759806   -3.741703   -2.723447
  H     -4.570229   -4.376092   -3.089746
  C     -2.464247   -3.963937   -3.174305
  H     -2.251712   -4.757471   -3.893935
  C     -1.442423   -3.142577   -2.687703
  C      0.607745   -1.877013   -2.057109
  C     -2.787868    0.561791    1.387096
  C     -2.665344    1.940313    1.107218
  H     -1.711213    2.336496    0.765434
  C     -3.721498    2.806376    1.320100
  H     -3.593203    3.871308    1.112278
  C     -4.941269    2.326136    1.818908
  H     -5.776613    3.009304    1.984203
  C     -5.073521    0.984147    2.123235
  H     -6.015630    0.623363    2.537997
  C     -4.012822    0.075961    1.927158
  C     -4.120785   -1.331175    2.238405
  C     -5.340714   -1.939431    2.597575
  H     -6.249497   -1.339738    2.654339
  C     -5.411442   -3.295814    2.857081
  H     -6.369205   -3.746930    3.125311
  C     -4.263971   -4.095971    2.750685
  H     -4.326096   -5.172773    2.918729
  C     -3.053920   -3.523457    2.408992
  H     -2.191681   -4.175478    2.273724
  C     -2.949861   -2.135831    2.161922
  C     -1.715316   -1.531894    1.719857
  C      0.647708   -1.483203    1.149834
  C      1.906437   -2.084632    1.459833
  C      3.209592   -1.691765    1.084638
  H      3.351971   -0.801099    0.470198
  C      4.306873   -2.415045    1.522953
  H      5.312569   -2.106085    1.227765
  C      4.140577   -3.536822    2.355586
  H      5.016664   -4.095703    2.692519
  C      2.876266   -3.938143    2.769951
  H      2.752187   -4.797404    3.432338
  C      1.769549   -3.209504    2.323269
  C     -0.405824   -2.136211    1.764954
  C      0.700061    1.328093    1.406185
  C      1.595228    2.659290    3.386646
  C      2.266780    1.959565    4.411994
  C      2.759063    2.715871    5.478272
  H      3.284266    2.204819    6.288815
  C      2.587596    4.099124    5.515462
  H      2.983213    4.670309    6.358448
  C      1.914376    4.760507    4.489113
  H      1.780703    5.844343    4.528076
  C      1.397592    4.056366    3.398951
  C      2.430072    0.479263    4.334141
  H      2.937234    0.085248    5.222570
  H      3.018173    0.185944    3.450147
  H      1.458103   -0.031107    4.241043
  C      0.648214    4.724167    2.295835
  H      0.669559    5.815274    2.399938
  H     -0.407662    4.409672    2.286025
  H      1.056964    4.466402    1.307111
  C     -0.830346    1.453654   -1.281969
  C     -1.882437    3.091408   -2.925556
  C     -1.713305    4.466179   -2.654267
  C     -2.308730    5.365583   -3.541721
  H     -2.197534    6.437377   -3.360164
  C     -3.031684    4.911757   -4.644377
  H     -3.487388    5.633545   -5.326158
  C     -3.178228    3.546426   -4.886368
  H     -3.746068    3.199316   -5.753041
  C     -2.607339    2.600292   -4.031652
  C     -0.916148    4.910628   -1.474555
  H     -1.273820    4.447086   -0.542312
  H     -0.955450    5.999157   -1.351061
  H      0.142136    4.622395   -1.577841
  C     -2.748052    1.132159   -4.250409
  H     -3.301325    0.916274   -5.171613
  H     -3.281052    0.651394   -3.415080
  H     -1.767528    0.634627   -4.316511

 Total Charge           Charge          ....    1
 Multiplicity           Mult            ....    1
 Number of Electrons    NEL             ....  478
 Basis Dimension        Dim             .... 1174

ORBITAL ENERGIES
----------------

  NO   OCC          E(Eh)            E(eV)
   0   2.0000     -90.622313     -2465.9585
   1   2.0000     -90.622261     -2465.9571
   2   2.0000     -15.109023      -411.1374
   3   2.0000     -15.108952      -411.1355
   4   2.0000     -15.090756      -410.6403
   5   2.0000     -15.090641      -410.6372
   6   2.0000     -10.887254      -296.2572
   7   2.0000     -10.887120      -296.2536
   8   2.0000     -10.882976      -296.1408
   9   2.0000     -10.882832      -296.1369
  10   2.0000     -10.851326      -295.2796
  11   2.0000     -10.851224      -295.2768
  12   2.0000     -10.848801      -295.2109
  13   2.0000     -10.848515      -295.2031
  14   2.0000     -10.827093      -294.6202
  15   2.0000     -10.827009      -294.6179
  16   2.0000     -10.824550      -294.5510
  17   2.0000     -10.824401      -294.5469
  18   2.0000     -10.820030      -294.4280
  19   2.0000     -10.819922      -294.4250
  20   2.0000     -10.817046      -294.3468
  21   2.0000     -10.816803      -294.3402
  22   2.0000     -10.813977      -294.2633
  23   2.0000     -10.813927      -294.2619
  24   2.0000     -10.813684      -294.2553
  25   2.0000     -10.813643      -294.2542
  26   2.0000     -10.812797      -294.2312
  27   2.0000     -10.812638      -294.2268
  28   2.0000     -10.808657      -294.1185
  29   2.0000     -10.808555      -294.1157
  30   2.0000     -10.805786      -294.0404
  31   2.0000     -10.805600      -294.0353
  32   2.0000     -10.801041      -293.9113
  33   2.0000     -10.800726      -293.9027
  34   2.0000     -10.800193      -293.8882
  35   2.0000     -10.799982      -293.8824
  36   2.0000     -10.799896      -293.8801
  37   2.0000     -10.799693      -293.8746
  38   2.0000     -10.799509      -293.8696
  39   2.0000     -10.799394      -293.8665
  40   2.0000     -10.799326      -293.8646
  41   2.0000     -10.799314      -293.8643
  42   2.0000     -10.799272      -293.8631
  43   2.0000     -10.799205      -293.8613
  44   2.0000     -10.798591      -293.8446
  45   2.0000     -10.798514      -293.8425
  46   2.0000     -10.798482      -293.8416
  47   2.0000     -10.798262      -293.8357
  48   2.0000     -10.798026      -293.8292
  49   2.0000     -10.797932      -293.8267
  50   2.0000     -10.797867      -293.8249
  51   2.0000     -10.797561      -293.8166
  52   2.0000     -10.796746      -293.7944
  53   2.0000     -10.796458      -293.7866
  54   2.0000     -10.794313      -293.7282
  55   2.0000     -10.794195      -293.7250
  56   2.0000     -10.792049      -293.6666
  57   2.0000     -10.792037      -293.6663
  58   2.0000     -10.791925      -293.6632
  59   2.0000     -10.791890      -293.6623
  60   2.0000     -10.790961      -293.6370
  61   2.0000     -10.790865      -293.6344
  62   2.0000     -10.782607      -293.4097
  63   2.0000     -10.782504      -293.4069
  64   2.0000     -10.781707      -293.3852
  65   2.0000     -10.781279      -293.3735
  66   2.0000      -8.546145      -232.5524
  67   2.0000      -8.546047      -232.5498
  68   2.0000      -6.356142      -172.9594
  69   2.0000      -6.356048      -172.9569
  70   2.0000      -6.353707      -172.8932
  71   2.0000      -6.353635      -172.8912
  72   2.0000      -6.350810      -172.8143
  73   2.0000      -6.350694      -172.8112
  74   2.0000      -4.051079      -110.2355
  75   2.0000      -2.301898       -62.6378
  76   2.0000      -2.296921       -62.5024
  77   2.0000      -2.294372       -62.4330
  78   2.0000      -1.170587       -31.8533
  79   2.0000      -1.170043       -31.8385
  80   2.0000      -1.156821       -31.4787
  81   2.0000      -1.153449       -31.3869
  82   2.0000      -1.064200       -28.9584
  83   2.0000      -1.062901       -28.9230
  84   2.0000      -1.043546       -28.3963
  85   2.0000      -1.042739       -28.3744
  86   2.0000      -1.039305       -28.2809
  87   2.0000      -1.039153       -28.2768
  88   2.0000      -1.029049       -28.0018
  89   2.0000      -1.028645       -27.9909
  90   2.0000      -0.992321       -27.0024
  91   2.0000      -0.991001       -26.9665
  92   2.0000      -0.949706       -25.8428
  93   2.0000      -0.949182       -25.8286
  94   2.0000      -0.949105       -25.8265
  95   2.0000      -0.948984       -25.8232
  96   2.0000      -0.940933       -25.6041
  97   2.0000      -0.940803       -25.6005
  98   2.0000      -0.938143       -25.5282
  99   2.0000      -0.937827       -25.5196
 100   2.0000      -0.925346       -25.1799
 101   2.0000      -0.923289       -25.1240
 102   2.0000      -0.909485       -24.7483
 103   2.0000      -0.909107       -24.7381
 104   2.0000      -0.885628       -24.0992
 105   2.0000      -0.885353       -24.0917
 106   2.0000      -0.871377       -23.7114
 107   2.0000      -0.871017       -23.7016
 108   2.0000      -0.863303       -23.4917
 109   2.0000      -0.862192       -23.4614
 110   2.0000      -0.853214       -23.2171
 111   2.0000      -0.849106       -23.1053
 112   2.0000      -0.823389       -22.4055
 113   2.0000      -0.822654       -22.3855
 114   2.0000      -0.803797       -21.8724
 115   2.0000      -0.801545       -21.8111
 116   2.0000      -0.784251       -21.3406
 117   2.0000      -0.783045       -21.3077
 118   2.0000      -0.778948       -21.1963
 119   2.0000      -0.778648       -21.1881
 120   2.0000      -0.771529       -20.9944
 121   2.0000      -0.770942       -20.9784
 122   2.0000      -0.731937       -19.9170
 123   2.0000      -0.731648       -19.9092
 124   2.0000      -0.719399       -19.5759
 125   2.0000      -0.717108       -19.5135
 126   2.0000      -0.711846       -19.3703
 127   2.0000      -0.711058       -19.3489
 128   2.0000      -0.709878       -19.3168
 129   2.0000      -0.709845       -19.3159
 130   2.0000      -0.690218       -18.7818
 131   2.0000      -0.686059       -18.6686
 132   2.0000      -0.676954       -18.4208
 133   2.0000      -0.675269       -18.3750
 134   2.0000      -0.669429       -18.2161
 135   2.0000      -0.668711       -18.1966
 136   2.0000      -0.654889       -17.8204
 137   2.0000      -0.652175       -17.7466
 138   2.0000      -0.633886       -17.2489
 139   2.0000      -0.617336       -16.7986
 140   2.0000      -0.616612       -16.7789
 141   2.0000      -0.609681       -16.5903
 142   2.0000      -0.606772       -16.5111
 143   2.0000      -0.604923       -16.4608
 144   2.0000      -0.603440       -16.4204
 145   2.0000      -0.597258       -16.2522
 146   2.0000      -0.596938       -16.2435
 147   2.0000      -0.595394       -16.2015
 148   2.0000      -0.583901       -15.8887
 149   2.0000      -0.583624       -15.8812
 150   2.0000      -0.576882       -15.6978
 151   2.0000      -0.574847       -15.6424
 152   2.0000      -0.571150       -15.5418
 153   2.0000      -0.570952       -15.5364
 154   2.0000      -0.567820       -15.4512
 155   2.0000      -0.566191       -15.4068
 156   2.0000      -0.565606       -15.3909
 157   2.0000      -0.561118       -15.2688
 158   2.0000      -0.554617       -15.0919
 159   2.0000      -0.552401       -15.0316
 160   2.0000      -0.550959       -14.9924
 161   2.0000      -0.549294       -14.9470
 162   2.0000      -0.542437       -14.7605
 163   2.0000      -0.541115       -14.7245
 164   2.0000      -0.535544       -14.5729
 165   2.0000      -0.534699       -14.5499
 166   2.0000      -0.534604       -14.5473
 167   2.0000      -0.529553       -14.4099
 168   2.0000      -0.528910       -14.3924
 169   2.0000      -0.526702       -14.3323
 170   2.0000      -0.526077       -14.3153
 171   2.0000      -0.520153       -14.1541
 172   2.0000      -0.519417       -14.1341
 173   2.0000      -0.511583       -13.9209
 174   2.0000      -0.510228       -13.8840
 175   2.0000      -0.509995       -13.8777
 176   2.0000      -0.506774       -13.7900
 177   2.0000      -0.504580       -13.7303
 178   2.0000      -0.503583       -13.7032
 179   2.0000      -0.502955       -13.6861
 180   2.0000      -0.497675       -13.5424
 181   2.0000      -0.497235       -13.5304
 182   2.0000      -0.495472       -13.4825
 183   2.0000      -0.493389       -13.4258
 184   2.0000      -0.493259       -13.4223
 185   2.0000      -0.490234       -13.3399
 186   2.0000      -0.487130       -13.2555
 187   2.0000      -0.483227       -13.1493
 188   2.0000      -0.479910       -13.0590
 189   2.0000      -0.477948       -13.0056
 190   2.0000      -0.472009       -12.8440
 191   2.0000      -0.468080       -12.7371
 192   2.0000      -0.467240       -12.7142
 193   2.0000      -0.466910       -12.7053
 194   2.0000      -0.466183       -12.6855
 195   2.0000      -0.464407       -12.6372
 196   2.0000      -0.462585       -12.5876
 197   2.0000      -0.459241       -12.4966
 198   2.0000      -0.455275       -12.3887
 199   2.0000      -0.454727       -12.3738
 200   2.0000      -0.452632       -12.3167
 201   2.0000      -0.450978       -12.2717
 202   2.0000      -0.446637       -12.1536
 203   2.0000      -0.444775       -12.1029
 204   2.0000      -0.441068       -12.0021
 205   2.0000      -0.440193       -11.9783
 206   2.0000      -0.439369       -11.9558
 207   2.0000      -0.432471       -11.7681
 208   2.0000      -0.431605       -11.7446
 209   2.0000      -0.431574       -11.7437
 210   2.0000      -0.430263       -11.7080
 211   2.0000      -0.417226       -11.3533
 212   2.0000      -0.416509       -11.3338
 213   2.0000      -0.413322       -11.2471
 214   2.0000      -0.411625       -11.2009
 215   2.0000      -0.401480       -10.9248
 216   2.0000      -0.392220       -10.6728
 217   2.0000      -0.382263       -10.4019
 218   2.0000      -0.377243       -10.2653
 219   2.0000      -0.376715       -10.2509
 220   2.0000      -0.361364        -9.8332
 221   2.0000      -0.360632        -9.8133
 222   2.0000      -0.360502        -9.8097
 223   2.0000      -0.347959        -9.4685
 224   2.0000      -0.346131        -9.4187
 225   2.0000      -0.343010        -9.3338
 226   2.0000      -0.332566        -9.0496
 227   2.0000      -0.307579        -8.3696
 228   2.0000      -0.307283        -8.3616
 229   2.0000      -0.305491        -8.3128
 230   2.0000      -0.304951        -8.2981
 231   2.0000      -0.303051        -8.2464
 232   2.0000      -0.300891        -8.1877
 233   2.0000      -0.292366        -7.9557
 234   2.0000      -0.288695        -7.8558
 235   2.0000      -0.284550        -7.7430
 236   2.0000      -0.282599        -7.6899
 237   2.0000      -0.259340        -7.0570
 238   2.0000      -0.250309        -6.8112
 239   0.0000      -0.037878        -1.0307
 240   0.0000      -0.032817        -0.8930
 241   0.0000       0.009415         0.2562
 242   0.0000       0.010420         0.2835
 243   0.0000       0.013630         0.3709

MULLIKEN ATOMIC CHARGES
-----------------------
   0 Ir:    0.459552
   1 S :    0.110511
   2 S :    0.111483
   3 N :   -0.495228
   4 N :   -0.492678
   5 N :   -0.124258
   6 N :   -0.121001
   7 C :    0.204699
   8 C :   -0.106393
   9 H :    0.068421
  10 C :   -0.007668
  11 H :    0.056583
  12 C :   -0.020707
  13 H :    0.048472
  14 C :   -0.054545
  15 H :    0.047958
  16 C :   -0.022856
  17 C :    0.085928
  18 C :   -0.071312
  19 H :    0.051457
  20 C :    0.015038
  21 H :    0.058759
  22 C :   -0.028588
  23 H :    0.055969
  24 C :   -0.031296
  25 H :    0.048683
  26 C :   -0.080301
  27 C :    0.316706
  28 C :   -0.009471
  29 C :   -0.051243
  30 C :   -0.027857
  31 H :    0.053094
  32 C :   -0.043715
  33 H :    0.044327
  34 C :   -0.019537
  35 H :    0.054103
  36 C :   -0.047169
  37 H :    0.045207
  38 C :   -0.071886
  39 C :   -0.204111
  40 C :    0.207000
  41 C :   -0.106794
  42 H :    0.066125
  43 C :   -0.007830
  44 H :    0.056301
  45 C :   -0.021522
  46 H :    0.048922
  47 C :   -0.055129
  48 H :    0.048743
  49 C :   -0.023128
  50 C :    0.082534
  51 C :   -0.069597
  52 H :    0.051162
  53 C :    0.015807
  54 H :    0.058767
  55 C :   -0.027973
  56 H :    0.056017
  57 C :   -0.032869
  58 H :    0.049265
  59 C :   -0.075858
  60 C :    0.312190
  61 C :   -0.007618
  62 C :   -0.046613
  63 C :   -0.028865
  64 H :    0.053586
  65 C :   -0.041388
  66 H :    0.043934
  67 C :   -0.020555
  68 H :    0.053957
  69 C :   -0.046314
  70 H :    0.044995
  71 C :   -0.076268
  72 C :   -0.197808
  73 C :    0.065919
  74 C :    0.124790
  75 C :   -0.138153
  76 C :   -0.081874
  77 H :    0.042318
  78 C :    0.011468
  79 H :    0.052487
  80 C :   -0.080096
  81 H :    0.041596
  82 C :   -0.138159
  83 C :    0.094704
  84 H :    0.040941
  85 H :    0.064151
  86 H :    0.062110
  87 C :    0.088514
  88 H :    0.041914
  89 H :    0.062779
  90 H :    0.063165
  91 C :    0.061355
  92 C :    0.121985
  93 C :   -0.135411
  94 C :   -0.081311
  95 H :    0.041302
  96 C :    0.012804
  97 H :    0.052246
  98 C :   -0.080645
  99 H :    0.042002
 100 C :   -0.137312
 101 C :    0.086416
 102 H :    0.064654
 103 H :    0.042043
 104 H :    0.063136
 105 C :    0.096093
 106 H :    0.041615
 107 H :    0.061235
 108 H :    0.060916
Sum of atomic charges:    1.0000000

LOEWDIN ATOMIC CHARGES
----------------------
   0 Ir:   -0.273872
   1 S :    0.373194
   2 S :    0.372994
   3 N :   -0.028059
   4 N :   -0.028939
   5 N :    0.071551
   6 N :    0.071579
   7 C :    0.044682
   8 C :   -0.031988
   9 H :    0.046877
  10 C :   -0.010523
  11 H :    0.044295
  12 C :   -0.032449
  13 H :    0.043083
  14 C :   -0.006855
  15 H :    0.045032
  16 C :   -0.040357
  17 C :    0.015988
  18 C :   -0.020406
  19 H :    0.045906
  20 C :    0.009082
  21 H :    0.048297
  22 C :   -0.024292
  23 H :    0.046483
  24 C :   -0.005185
  25 H :    0.025266
  26 C :   -0.053709
  27 C :    0.126747
  28 C :   -0.057758
  29 C :   -0.070206
  30 C :   -0.003354
  31 H :    0.042596
  32 C :   -0.045330
  33 H :    0.040750
  34 C :   -0.015446
  35 H :    0.043387
  36 C :   -0.049856
  37 H :    0.044253
  38 C :   -0.146882
  39 C :   -0.220487
  40 C :    0.044451
  41 C :   -0.032436
  42 H :    0.046574
  43 C :   -0.010624
  44 H :    0.044656
  45 C :   -0.032498
  46 H :    0.043218
  47 C :   -0.006989
  48 H :    0.045246
  49 C :   -0.040724
  50 C :    0.015880
  51 C :   -0.020247
  52 H :    0.045972
  53 C :    0.009166
  54 H :    0.048318
  55 C :   -0.024476
  56 H :    0.046546
  57 C :   -0.004295
  58 H :    0.026812
  59 C :   -0.054178
  60 C :    0.127386
  61 C :   -0.057326
  62 C :   -0.068704
  63 C :   -0.002855
  64 H :    0.042749
  65 C :   -0.045046
  66 H :    0.040731
  67 C :   -0.015735
  68 H :    0.043284
  69 C :   -0.050104
  70 H :    0.044122
  71 C :   -0.146941
  72 C :   -0.219805
  73 C :    0.160735
  74 C :   -0.014345
  75 C :   -0.007497
  76 C :   -0.040931
  77 H :    0.041928
  78 C :   -0.006265
  79 H :    0.044758
  80 C :   -0.040878
  81 H :    0.041745
  82 C :   -0.008083
  83 C :   -0.036532
  84 H :    0.037662
  85 H :    0.041217
  86 H :    0.041207
  87 C :   -0.036635
  88 H :    0.038198
  89 H :    0.043174
  90 H :    0.040863
  91 C :    0.159869
  92 C :   -0.014280
  93 C :   -0.007151
  94 C :   -0.040768
  95 H :    0.041708
  96 C :   -0.006200
  97 H :    0.044686
  98 C :   -0.040712
  99 H :    0.041857
 100 C :   -0.008046
 101 C :   -0.036913
 102 H :    0.041617
 103 H :    0.038279
 104 H :    0.043211
 105 C :   -0.036059
 106 H :    0.037740
 107 H :    0.041313
 108 H :    0.041314

  Mayer bond orders larger than 0.100000
B(  0-Ir,  3-N ) :   0.4543 B(  0-Ir,  4-N ) :   0.4526 B(  0-Ir, 28-C ) :   0.6517
B(  0-Ir, 61-C ) :   0.6537 B(  0-Ir, 73-C ) :   0.6341 B(  0-Ir, 91-C ) :   0.6333
B(  1-S , 38-C ) :   1.0643 B(  1-S , 39-C ) :   1.0128 B(  2-S , 71-C ) :   1.0644
B(  2-S , 72-C ) :   1.0128 B(  3-N ,  7-C ) :   1.0907 B(  3-N , 27-C ) :   1.4009
B(  4-N , 40-C ) :   1.0898 B(  4-N , 60-C ) :   1.4052 B(  5-N , 73-C ) :   2.5405
B(  5-N , 74-C ) :   0.8791 B(  6-N , 91-C ) :   2.5387 B(  6-N , 92-C ) :   0.8804
B(  7-C ,  8-C ) :   1.3138 B(  7-C , 16-C ) :   1.3355 B(  8-C ,  9-H ) :   0.9882
B(  8-C , 10-C ) :   1.4668 B( 10-C , 11-H ) :   0.9964 B( 10-C , 12-C ) :   1.2950
B( 12-C , 13-H ) :   0.9977 B( 12-C , 14-C ) :   1.4641 B( 14-C , 15-H ) :   0.9977
B( 14-C , 16-C ) :   1.3253 B( 16-C , 17-C ) :   1.1084 B( 17-C , 18-C ) :   1.3278
B( 17-C , 26-C ) :   1.3153 B( 18-C , 19-H ) :   0.9980 B( 18-C , 20-C ) :   1.4667
B( 20-C , 21-H ) :   0.9946 B( 20-C , 22-C ) :   1.2978 B( 22-C , 23-H ) :   0.9952
B( 22-C , 24-C ) :   1.4989 B( 24-C , 25-H ) :   0.9779 B( 24-C , 26-C ) :   1.2883
B( 26-C , 27-C ) :   1.1493 B( 27-C , 39-C ) :   1.1646 B( 28-C , 29-C ) :   1.2410
B( 28-C , 39-C ) :   1.5786 B( 28-C , 73-C ) :   0.1126 B( 29-C , 30-C ) :   1.3078
B( 29-C , 38-C ) :   1.3123 B( 30-C , 31-H ) :   0.9956 B( 30-C , 32-C ) :   1.4587
B( 32-C , 33-H ) :   0.9981 B( 32-C , 34-C ) :   1.3121 B( 34-C , 35-H ) :   0.9956
B( 34-C , 36-C ) :   1.4516 B( 36-C , 37-H ) :   1.0027 B( 36-C , 38-C ) :   1.3482
B( 40-C , 41-C ) :   1.3144 B( 40-C , 49-C ) :   1.3347 B( 41-C , 42-H ) :   0.9898
B( 41-C , 43-C ) :   1.4676 B( 43-C , 44-H ) :   0.9967 B( 43-C , 45-C ) :   1.2948
B( 45-C , 46-H ) :   0.9978 B( 45-C , 47-C ) :   1.4640 B( 47-C , 48-H ) :   0.9981
B( 47-C , 49-C ) :   1.3252 B( 49-C , 50-C ) :   1.1083 B( 50-C , 51-C ) :   1.3291
B( 50-C , 59-C ) :   1.3136 B( 51-C , 52-H ) :   0.9979 B( 51-C , 53-C ) :   1.4660
B( 53-C , 54-H ) :   0.9946 B( 53-C , 55-C ) :   1.2961 B( 55-C , 56-H ) :   0.9954
B( 55-C , 57-C ) :   1.4989 B( 57-C , 58-H ) :   0.9790 B( 57-C , 59-C ) :   1.2887
B( 59-C , 60-C ) :   1.1497 B( 60-C , 72-C ) :   1.1589 B( 61-C , 62-C ) :   1.2394
B( 61-C , 72-C ) :   1.5777 B( 61-C , 91-C ) :   0.1148 B( 62-C , 63-C ) :   1.3097
B( 62-C , 71-C ) :   1.3107 B( 63-C , 64-H ) :   0.9954 B( 63-C , 65-C ) :   1.4576
B( 65-C , 66-H ) :   0.9984 B( 65-C , 67-C ) :   1.3120 B( 67-C , 68-H ) :   0.9955
B( 67-C , 69-C ) :   1.4517 B( 69-C , 70-H ) :   1.0023 B( 69-C , 71-C ) :   1.3490
B( 74-C , 75-C ) :   1.3731 B( 74-C , 82-C ) :   1.3766 B( 75-C , 76-C ) :   1.4232
B( 75-C , 83-C ) :   1.0484 B( 76-C , 77-H ) :   1.0024 B( 76-C , 78-C ) :   1.3756
B( 78-C , 79-H ) :   1.0006 B( 78-C , 80-C ) :   1.3741 B( 80-C , 81-H ) :   1.0033
B( 80-C , 82-C ) :   1.4225 B( 82-C , 87-C ) :   1.0458 B( 83-C , 84-H ) :   0.9562
B( 83-C , 85-H ) :   0.9578 B( 83-C , 86-H ) :   0.9577 B( 87-C , 88-H ) :   0.9559
B( 87-C , 89-H ) :   0.9565 B( 87-C , 90-H ) :   0.9609 B( 92-C , 93-C ) :   1.3749
B( 92-C ,100-C ) :   1.3751 B( 93-C , 94-C ) :   1.4233 B( 93-C ,101-C ) :   1.0453
B( 94-C , 95-H ) :   1.0034 B( 94-C , 96-C ) :   1.3743 B( 96-C , 97-H ) :   1.0008
B( 96-C , 98-C ) :   1.3749 B( 98-C , 99-H ) :   1.0024 B( 98-C ,100-C ) :   1.4225
B(100-C ,105-C ) :   1.0470 B(101-C ,102-H ) :   0.9609 B(101-C ,103-H ) :   0.9554
B(101-C ,104-H ) :   0.9556 B(105-C ,106-H ) :   0.9575 B(105-C ,107-H ) :   0.9580
B(105-C ,108-H ) :   0.9586

MP2 TOTAL ENERGY:    -3425.474223423 Eh

-----------------------------------------------------------------------------
         ABSORPTION SPECTRUM VIA TRANSITION ELECTRIC DIPOLE MOMENTS
-----------------------------------------------------------------------------
State   Energy    Wavelength  fosc         T2        TX        TY        TZ
        (cm-1)      (nm)                 (au**2)    (au)      (au)      (au)
-----------------------------------------------------------------------------
   1   22933.7    436.0   0.129482896   1.85872  -0.09516  -1.35902  -0.05222
   2   23447.8    426.5   0.633672099   8.89690  -2.97669  -0.09802   0.16320
   3   24017.9    416.4   0.009864127   0.13521   0.00655   0.25566  -0.26420
   4   24736.6    404.3   0.047364980   0.63037  -0.03155   0.78299   0.12767
   5   28779.9    347.5   0.051872664   0.59337  -0.01554   0.76868   0.04757
   6   28140.5    355.4   0.035468790   0.41494  -0.29923   0.05081  -0.56817
   7   28796.7    347.3   0.100928570   1.15384   0.39218   0.03163  -0.99952
   8   28685.5    348.6   0.140444655   1.61182  -0.04544   1.26749   0.05680
   9   32967.8    303.3   0.286781233   2.86376   1.67559   0.08267  -0.22211
  10   33081.0    302.3   0.017076793   0.16994  -0.05258  -0.40636  -0.04523
  11   38239.2    261.5   0.011139293   0.09590   0.04555   0.30611  -0.01100
  12   37983.5    263.3   0.078400373   0.67951   0.74376   0.02770  -0.35434
  13   34048.6    293.7   0.582543877   5.63255  -2.09429   0.11865   1.11014
  14   34284.0    291.7   0.228066466   2.19001   0.35039   1.43459  -0.09576
  15   31139.0    321.1   0.001003919   0.01061   0.04795   0.07921  -0.04516
  16   31341.6    319.1   0.007079344   0.07436  -0.22363  -0.01075   0.15568
  17   37184.8    268.9   0.057629546   0.51022   0.11767  -0.70447  -0.00972
  18   39010.1    256.3   0.485798503   4.09972   1.01176  -0.07021   1.75247
  19   37408.6    267.3   0.002360981   0.02078  -0.10069   0.10314   0.00095
  20   38683.3    258.5   0.005119400   0.04357  -0.01798   0.20778  -0.00850
  21   38311.6    261.0   0.341550899   2.93495  -0.14541   1.70593   0.06010
  22   37890.5    263.9   0.024221494   0.21045  -0.24115   0.00774  -0.39018
  23   38437.6    260.2   0.574648469   4.92177  -0.05517   2.21048   0.18033
  24   37513.1    266.6   0.054628443   0.47941  -0.63002   0.03310  -0.28531
  25   36917.2    270.9   0.003657009   0.03261  -0.00735  -0.14671  -0.10504
  26   35713.7    280.0   0.083639036   0.77099  -0.12856   0.09252  -0.86366
  27   35809.3    279.3   0.008714507   0.08012  -0.05574   0.24689  -0.12670
  28   36659.3    272.8   0.050019546   0.44919  -0.00997   0.66759   0.05847
  29   36277.3    275.7   0.081464544   0.73928  -0.08368  -0.00125  -0.85573
  30   34430.4    290.4   0.042812021   0.40935  -0.04651   0.63625   0.04872
  31   36549.7    273.6   0.131054237   1.18044  -0.96731  -0.02336   0.49416
  32   38106.5    262.4   0.095868815   0.82824   0.90033   0.11546   0.06567
  33   38545.8    259.4   0.042513908   0.36310  -0.13741   0.58363   0.06000
  34   38664.8    258.6   0.040208269   0.34235   0.47261   0.28653  -0.19208
  35   38299.3    261.1   0.034779613   0.29896   0.07987  -0.53578  -0.07428
  36   35909.6    278.5   0.048078717   0.44078  -0.54721  -0.01581  -0.37561
  37   38659.9    258.7   0.027431111   0.23359  -0.06864   0.47814   0.01618
  38   37042.9    270.0   0.065465856   0.58182  -0.74631  -0.07547  -0.13833
  39   37083.2    269.7   0.011969814   0.10626  -0.08654   0.31218  -0.03633
  40   37137.4    269.3   0.031079465   0.27551  -0.33669   0.01638  -0.40234

FINAL SINGLE POINT ENERGY     -3421.489342497425

DIPOLE MOMENT
-------------
                                X             Y             Z
Electronic contribution:      0.60558     -10.63087      -7.01994
Nuclear contribution   :     -0.75574      13.58611       7.27239
                        -----------------------------------------
Total Dipole Moment    :     -0.15016       2.95524       0.25245
                        -----------------------------------------
Magnitude (a.u.)       :      2.96980
Magnitude (Debye)      :      7.54862

Rotational constants in cm-1:     0.001222     0.001139     0.001103
Rotational constants in MHz :    36.645732    34.144706    33.054055

                             ****ORCA TERMINATED NORMALLY****
TOTAL RUN TIME: 0 days 10 hours 57 minutes 32 seconds 478 msec
