                         Program Version 5.0.4 -  RELEASE  -
|  1> %maxcore 12000
|  2> %pal
|  3>  nprocs 8
|  4> end
|  5> ! RI-wB2PLYP def2-SVP def2/J def2-SVP/C RIJCOSX CPCM TIGHTSCF
|  6>
|  7> %TDDFT
|  8>     DCORR      1
|  9>     NROOTS    40
| 10>     TDA       FALSE
| 11> END
| 12>
| 13> %CPCM
| 14>     SMD		TRUE
| 15>     SMDsolvent	"Acetonitrile"
| 16> END
| 17>
| 18> * xyz 1 1
| 19> Ir                 -0.00454100    0.09341600   -0.03280600
| 20> S                   0.23436200   -3.22247800   -3.13821500
| 21> S                   0.11030600   -3.51117400    2.74490000
| 22> N                   1.72557100    0.01622900   -1.28168100
| 23> N                  -1.71173700   -0.29091200    1.19620800
| 24> N                   1.10410800    1.94004500    2.32414600
| 25> N                  -1.31047900    2.18672200   -2.06454100
| 26> C                   2.70862300    0.98967900   -1.36212600
| 27> C                   2.45549800    2.29931100   -0.89872300
| 28> H                   1.47400300    2.54681700   -0.49925200
| 29> C                   3.41629400    3.28795600   -1.00038700
| 30> H                   3.18715600    4.29797600   -0.65263500
| 31> C                   4.66896800    3.00232700   -1.56264100
| 32> H                   5.42979900    3.78153300   -1.63858900
| 33> C                   4.92922200    1.73153700   -2.04018600
| 34> H                   5.89741400    1.52457200   -2.49759500
| 35> C                   3.96702900    0.70353700   -1.96344800
| 36> C                   4.21005500   -0.63299300   -2.45624200
| 37> C                   5.47557700   -1.05516600   -2.91214000
| 38> H                   6.31359400   -0.35772200   -2.90760000
| 39> C                   5.68136100   -2.35131200   -3.34689200
| 40> H                   6.67231800   -2.65774300   -3.68867700
| 41> C                   4.62842200   -3.27799200   -3.32430100
| 42> H                   4.79804000   -4.31179000   -3.63099800
| 43> C                   3.37599700   -2.88730700   -2.89133300
| 44> H                   2.59299000   -3.64151600   -2.82728200
| 45> C                   3.13189300   -1.56159300   -2.46683200
| 46> C                   1.84885200   -1.14915600   -1.94673300
| 47> C                  -0.50526500   -1.39561600   -1.38836400
| 48> C                  -1.69414800   -2.10422700   -1.74543500
| 49> C                  -3.02900700   -1.88869200   -1.33836400
| 50> H                  -3.26486000   -1.06285600   -0.66475100
| 51> C                  -4.04223700   -2.70288100   -1.81769100
| 52> H                  -5.07237900   -2.53225300   -1.49542200
| 53> C                  -3.75980600   -3.74170300   -2.72344700
| 54> H                  -4.57022900   -4.37609200   -3.08974600
| 55> C                  -2.46424700   -3.96393700   -3.17430500
| 56> H                  -2.25171200   -4.75747100   -3.89393500
| 57> C                  -1.44242300   -3.14257700   -2.68770300
| 58> C                   0.60774500   -1.87701300   -2.05710900
| 59> C                  -2.78786800    0.56179100    1.38709600
| 60> C                  -2.66534400    1.94031300    1.10721800
| 61> H                  -1.71121300    2.33649600    0.76543400
| 62> C                  -3.72149800    2.80637600    1.32010000
| 63> H                  -3.59320300    3.87130800    1.11227800
| 64> C                  -4.94126900    2.32613600    1.81890800
| 65> H                  -5.77661300    3.00930400    1.98420300
| 66> C                  -5.07352100    0.98414700    2.12323500
| 67> H                  -6.01563000    0.62336300    2.53799700
| 68> C                  -4.01282200    0.07596100    1.92715800
| 69> C                  -4.12078500   -1.33117500    2.23840500
| 70> C                  -5.34071400   -1.93943100    2.59757500
| 71> H                  -6.24949700   -1.33973800    2.65433900
| 72> C                  -5.41144200   -3.29581400    2.85708100
| 73> H                  -6.36920500   -3.74693000    3.12531100
| 74> C                  -4.26397100   -4.09597100    2.75068500
| 75> H                  -4.32609600   -5.17277300    2.91872900
| 76> C                  -3.05392000   -3.52345700    2.40899200
| 77> H                  -2.19168100   -4.17547800    2.27372400
| 78> C                  -2.94986100   -2.13583100    2.16192200
| 79> C                  -1.71531600   -1.53189400    1.71985700
| 80> C                   0.64770800   -1.48320300    1.14983400
| 81> C                   1.90643700   -2.08463200    1.45983300
| 82> C                   3.20959200   -1.69176500    1.08463800
| 83> H                   3.35197100   -0.80109900    0.47019800
| 84> C                   4.30687300   -2.41504500    1.52295300
| 85> H                   5.31256900   -2.10608500    1.22776500
| 86> C                   4.14057700   -3.53682200    2.35558600
| 87> H                   5.01666400   -4.09570300    2.69251900
| 88> C                   2.87626600   -3.93814300    2.76995100
| 89> H                   2.75218700   -4.79740400    3.43233800
| 90> C                   1.76954900   -3.20950400    2.32326900
| 91> C                  -0.40582400   -2.13621100    1.76495400
| 92> C                   0.70006100    1.32809300    1.40618500
| 93> C                   1.59522800    2.65929000    3.38664600
| 94> C                   2.26678000    1.95956500    4.41199400
| 95> C                   2.75906300    2.71587100    5.47827200
| 96> H                   3.28426600    2.20481900    6.28881500
| 97> C                   2.58759600    4.09912400    5.51546200
| 98> H                   2.98321300    4.67030900    6.35844800
| 99> C                   1.91437600    4.76050700    4.48911300
|100> H                   1.78070300    5.84434300    4.52807600
|101> C                   1.39759200    4.05636600    3.39895100
|102> C                   2.43007200    0.47926300    4.33414100
|103> H                   2.93723400    0.08524800    5.22257000
|104> H                   3.01817300    0.18594400    3.45014700
|105> H                   1.45810300   -0.03110700    4.24104300
|106> C                   0.64821400    4.72416700    2.29583500
|107> H                   0.66955900    5.81527400    2.39993800
|108> H                  -0.40766200    4.40967200    2.28602500
|109> H                   1.05696400    4.46640200    1.30711100
|110> C                  -0.83034600    1.45365400   -1.28196900
|111> C                  -1.88243700    3.09140800   -2.92555600
|112> C                  -1.71330500    4.46617900   -2.65426700
|113> C                  -2.30873000    5.36558300   -3.54172100
|114> H                  -2.19753400    6.43737700   -3.36016400
|115> C                  -3.03168400    4.91175700   -4.64437700
|116> H                  -3.48738800    5.63354500   -5.32615800
|117> C                  -3.17822800    3.54642600   -4.88636800
|118> H                  -3.74606800    3.19931600   -5.75304100
|119> C                  -2.60733900    2.60029200   -4.03165200
|120> C                  -0.91614800    4.91062800   -1.47455500
|121> H                  -1.27382000    4.44708600   -0.54231200
|122> H                  -0.95545000    5.99915700   -1.35106100
|123> H                   0.14213600    4.62239500   -1.57784100
|124> C                  -2.74805200    1.13215900   -4.25040900
|125> H                  -3.30132500    0.91627400   -5.17161300
|126> H                  -3.28105200    0.65139400   -3.41508000
|127> H                  -1.76752800    0.63462700   -4.31651100
|128> *
|129>
|130>                          ****END OF INPUT****

CARTESIAN COORDINATES (ANGSTROEM)
---------------------------------
  Ir    -0.004541    0.093416   -0.032806
  S      0.234362   -3.222478   -3.138215
  S      0.110306   -3.511174    2.744900
  N      1.725571    0.016229   -1.281681
  N     -1.711737   -0.290912    1.196208
  N      1.104108    1.940045    2.324146
  N     -1.310479    2.186722   -2.064541
  C      2.708623    0.989679   -1.362126
  C      2.455498    2.299311   -0.898723
  H      1.474003    2.546817   -0.499252
  C      3.416294    3.287956   -1.000387
  H      3.187156    4.297976   -0.652635
  C      4.668968    3.002327   -1.562641
  H      5.429799    3.781533   -1.638589
  C      4.929222    1.731537   -2.040186
  H      5.897414    1.524572   -2.497595
  C      3.967029    0.703537   -1.963448
  C      4.210055   -0.632993   -2.456242
  C      5.475577   -1.055166   -2.912140
  H      6.313594   -0.357722   -2.907600
  C      5.681361   -2.351312   -3.346892
  H      6.672318   -2.657743   -3.688677
  C      4.628422   -3.277992   -3.324301
  H      4.798040   -4.311790   -3.630998
  C      3.375997   -2.887307   -2.891333
  H      2.592990   -3.641516   -2.827282
  C      3.131893   -1.561593   -2.466832
  C      1.848852   -1.149156   -1.946733
  C     -0.505265   -1.395616   -1.388364
  C     -1.694148   -2.104227   -1.745435
  C     -3.029007   -1.888692   -1.338364
  H     -3.264860   -1.062856   -0.664751
  C     -4.042237   -2.702881   -1.817691
  H     -5.072379   -2.532253   -1.495422
  C     -3.759806   -3.741703   -2.723447
  H     -4.570229   -4.376092   -3.089746
  C     -2.464247   -3.963937   -3.174305
  H     -2.251712   -4.757471   -3.893935
  C     -1.442423   -3.142577   -2.687703
  C      0.607745   -1.877013   -2.057109
  C     -2.787868    0.561791    1.387096
  C     -2.665344    1.940313    1.107218
  H     -1.711213    2.336496    0.765434
  C     -3.721498    2.806376    1.320100
  H     -3.593203    3.871308    1.112278
  C     -4.941269    2.326136    1.818908
  H     -5.776613    3.009304    1.984203
  C     -5.073521    0.984147    2.123235
  H     -6.015630    0.623363    2.537997
  C     -4.012822    0.075961    1.927158
  C     -4.120785   -1.331175    2.238405
  C     -5.340714   -1.939431    2.597575
  H     -6.249497   -1.339738    2.654339
  C     -5.411442   -3.295814    2.857081
  H     -6.369205   -3.746930    3.125311
  C     -4.263971   -4.095971    2.750685
  H     -4.326096   -5.172773    2.918729
  C     -3.053920   -3.523457    2.408992
  H     -2.191681   -4.175478    2.273724
  C     -2.949861   -2.135831    2.161922
  C     -1.715316   -1.531894    1.719857
  C      0.647708   -1.483203    1.149834
  C      1.906437   -2.084632    1.459833
  C      3.209592   -1.691765    1.084638
  H      3.351971   -0.801099    0.470198
  C      4.306873   -2.415045    1.522953
  H      5.312569   -2.106085    1.227765
  C      4.140577   -3.536822    2.355586
  H      5.016664   -4.095703    2.692519
  C      2.876266   -3.938143    2.769951
  H      2.752187   -4.797404    3.432338
  C      1.769549   -3.209504    2.323269
  C     -0.405824   -2.136211    1.764954
  C      0.700061    1.328093    1.406185
  C      1.595228    2.659290    3.386646
  C      2.266780    1.959565    4.411994
  C      2.759063    2.715871    5.478272
  H      3.284266    2.204819    6.288815
  C      2.587596    4.099124    5.515462
  H      2.983213    4.670309    6.358448
  C      1.914376    4.760507    4.489113
  H      1.780703    5.844343    4.528076
  C      1.397592    4.056366    3.398951
  C      2.430072    0.479263    4.334141
  H      2.937234    0.085248    5.222570
  H      3.018173    0.185944    3.450147
  H      1.458103   -0.031107    4.241043
  C      0.648214    4.724167    2.295835
  H      0.669559    5.815274    2.399938
  H     -0.407662    4.409672    2.286025
  H      1.056964    4.466402    1.307111
  C     -0.830346    1.453654   -1.281969
  C     -1.882437    3.091408   -2.925556
  C     -1.713305    4.466179   -2.654267
  C     -2.308730    5.365583   -3.541721
  H     -2.197534    6.437377   -3.360164
  C     -3.031684    4.911757   -4.644377
  H     -3.487388    5.633545   -5.326158
  C     -3.178228    3.546426   -4.886368
  H     -3.746068    3.199316   -5.753041
  C     -2.607339    2.600292   -4.031652
  C     -0.916148    4.910628   -1.474555
  H     -1.273820    4.447086   -0.542312
  H     -0.955450    5.999157   -1.351061
  H      0.142136    4.622395   -1.577841
  C     -2.748052    1.132159   -4.250409
  H     -3.301325    0.916274   -5.171613
  H     -3.281052    0.651394   -3.415080
  H     -1.767528    0.634627   -4.316511

 Total Charge           Charge          ....    1
 Multiplicity           Mult            ....    1
 Number of Electrons    NEL             ....  478
 Basis Dimension        Dim             .... 1174

ORBITAL ENERGIES
----------------

  NO   OCC          E(Eh)            E(eV)
   0   2.0000     -90.234495     -2455.4054
   1   2.0000     -90.234401     -2455.4029
   2   2.0000     -14.996667      -408.0800
   3   2.0000     -14.996563      -408.0772
   4   2.0000     -14.978794      -407.5937
   5   2.0000     -14.978714      -407.5915
   6   2.0000     -10.802562      -293.9526
   7   2.0000     -10.802418      -293.9487
   8   2.0000     -10.797559      -293.8165
   9   2.0000     -10.797411      -293.8125
  10   2.0000     -10.763462      -292.8887
  11   2.0000     -10.763350      -292.8856
  12   2.0000     -10.761573      -292.8373
  13   2.0000     -10.761276      -292.8292
  14   2.0000     -10.740167      -292.2548
  15   2.0000     -10.740118      -292.2535
  16   2.0000     -10.737858      -292.1920
  17   2.0000     -10.737703      -292.1878
  18   2.0000     -10.733140      -292.0636
  19   2.0000     -10.733047      -292.0611
  20   2.0000     -10.729937      -291.9764
  21   2.0000     -10.729761      -291.9716
  22   2.0000     -10.726942      -291.8949
  23   2.0000     -10.726896      -291.8937
  24   2.0000     -10.726646      -291.8869
  25   2.0000     -10.726569      -291.8848
  26   2.0000     -10.725818      -291.8643
  27   2.0000     -10.725647      -291.8597
  28   2.0000     -10.721173      -291.7380
  29   2.0000     -10.721062      -291.7349
  30   2.0000     -10.717826      -291.6469
  31   2.0000     -10.717626      -291.6414
  32   2.0000     -10.713801      -291.5373
  33   2.0000     -10.713548      -291.5305
  34   2.0000     -10.712567      -291.5038
  35   2.0000     -10.712369      -291.4984
  36   2.0000     -10.712267      -291.4956
  37   2.0000     -10.712264      -291.4955
  38   2.0000     -10.712158      -291.4926
  39   2.0000     -10.712063      -291.4901
  40   2.0000     -10.711721      -291.4807
  41   2.0000     -10.711601      -291.4775
  42   2.0000     -10.711265      -291.4683
  43   2.0000     -10.711248      -291.4679
  44   2.0000     -10.711203      -291.4666
  45   2.0000     -10.711121      -291.4644
  46   2.0000     -10.710660      -291.4519
  47   2.0000     -10.710355      -291.4436
  48   2.0000     -10.710318      -291.4426
  49   2.0000     -10.710245      -291.4406
  50   2.0000     -10.709934      -291.4321
  51   2.0000     -10.709861      -291.4301
  52   2.0000     -10.709532      -291.4212
  53   2.0000     -10.709243      -291.4133
  54   2.0000     -10.706431      -291.3368
  55   2.0000     -10.706309      -291.3335
  56   2.0000     -10.703754      -291.2639
  57   2.0000     -10.703753      -291.2639
  58   2.0000     -10.703638      -291.2608
  59   2.0000     -10.703593      -291.2596
  60   2.0000     -10.703036      -291.2444
  61   2.0000     -10.702953      -291.2421
  62   2.0000     -10.693785      -290.9927
  63   2.0000     -10.693744      -290.9916
  64   2.0000     -10.692713      -290.9635
  65   2.0000     -10.692442      -290.9561
  66   2.0000      -8.469221      -230.4592
  67   2.0000      -8.469088      -230.4556
  68   2.0000      -6.320978      -172.0025
  69   2.0000      -6.320848      -171.9990
  70   2.0000      -6.318087      -171.9239
  71   2.0000      -6.317977      -171.9209
  72   2.0000      -6.314736      -171.8327
  73   2.0000      -6.314584      -171.8286
  74   2.0000      -4.050546      -110.2210
  75   2.0000      -2.322099       -63.1875
  76   2.0000      -2.316593       -63.0377
  77   2.0000      -2.314063       -62.9689
  78   2.0000      -1.203899       -32.7598
  79   2.0000      -1.203266       -32.7425
  80   2.0000      -1.192361       -32.4458
  81   2.0000      -1.188959       -32.3532
  82   2.0000      -1.102428       -29.9986
  83   2.0000      -1.101079       -29.9619
  84   2.0000      -1.080953       -29.4142
  85   2.0000      -1.080079       -29.3904
  86   2.0000      -1.076350       -29.2890
  87   2.0000      -1.076175       -29.2842
  88   2.0000      -1.066908       -29.0320
  89   2.0000      -1.066462       -29.0199
  90   2.0000      -1.030899       -28.0522
  91   2.0000      -1.029584       -28.0164
  92   2.0000      -0.988099       -26.8876
  93   2.0000      -0.987559       -26.8728
  94   2.0000      -0.987476       -26.8706
  95   2.0000      -0.987277       -26.8652
  96   2.0000      -0.979727       -26.6597
  97   2.0000      -0.979593       -26.6561
  98   2.0000      -0.976370       -26.5684
  99   2.0000      -0.975990       -26.5580
 100   2.0000      -0.964521       -26.2460
 101   2.0000      -0.962203       -26.1829
 102   2.0000      -0.948061       -25.7981
 103   2.0000      -0.947653       -25.7870
 104   2.0000      -0.923691       -25.1349
 105   2.0000      -0.923399       -25.1270
 106   2.0000      -0.910157       -24.7666
 107   2.0000      -0.909876       -24.7590
 108   2.0000      -0.902764       -24.5655
 109   2.0000      -0.901519       -24.5316
 110   2.0000      -0.893164       -24.3042
 111   2.0000      -0.888875       -24.1875
 112   2.0000      -0.862349       -23.4657
 113   2.0000      -0.861518       -23.4431
 114   2.0000      -0.843658       -22.9571
 115   2.0000      -0.841219       -22.8907
 116   2.0000      -0.824401       -22.4331
 117   2.0000      -0.823022       -22.3956
 118   2.0000      -0.819313       -22.2946
 119   2.0000      -0.819042       -22.2873
 120   2.0000      -0.812546       -22.1105
 121   2.0000      -0.811868       -22.0920
 122   2.0000      -0.771969       -21.0064
 123   2.0000      -0.771682       -20.9985
 124   2.0000      -0.760271       -20.6880
 125   2.0000      -0.757698       -20.6180
 126   2.0000      -0.752453       -20.4753
 127   2.0000      -0.751567       -20.4512
 128   2.0000      -0.750774       -20.4296
 129   2.0000      -0.750730       -20.4284
 130   2.0000      -0.731767       -19.9124
 131   2.0000      -0.727426       -19.7943
 132   2.0000      -0.717973       -19.5370
 133   2.0000      -0.715679       -19.4746
 134   2.0000      -0.712293       -19.3825
 135   2.0000      -0.711482       -19.3604
 136   2.0000      -0.696296       -18.9472
 137   2.0000      -0.693355       -18.8672
 138   2.0000      -0.678174       -18.4540
 139   2.0000      -0.659831       -17.9549
 140   2.0000      -0.658448       -17.9173
 141   2.0000      -0.651693       -17.7335
 142   2.0000      -0.650020       -17.6879
 143   2.0000      -0.647771       -17.6267
 144   2.0000      -0.645379       -17.5617
 145   2.0000      -0.640207       -17.4209
 146   2.0000      -0.638926       -17.3861
 147   2.0000      -0.637364       -17.3436
 148   2.0000      -0.625611       -17.0238
 149   2.0000      -0.625334       -17.0162
 150   2.0000      -0.619538       -16.8585
 151   2.0000      -0.617170       -16.7940
 152   2.0000      -0.616374       -16.7724
 153   2.0000      -0.612767       -16.6742
 154   2.0000      -0.610465       -16.6116
 155   2.0000      -0.608341       -16.5538
 156   2.0000      -0.607872       -16.5411
 157   2.0000      -0.605572       -16.4785
 158   2.0000      -0.598748       -16.2928
 159   2.0000      -0.597468       -16.2579
 160   2.0000      -0.594837       -16.1863
 161   2.0000      -0.591206       -16.0875
 162   2.0000      -0.583878       -15.8881
 163   2.0000      -0.582933       -15.8624
 164   2.0000      -0.577462       -15.7135
 165   2.0000      -0.575422       -15.6580
 166   2.0000      -0.575389       -15.6571
 167   2.0000      -0.570646       -15.5281
 168   2.0000      -0.570401       -15.5214
 169   2.0000      -0.567365       -15.4388
 170   2.0000      -0.566307       -15.4100
 171   2.0000      -0.561965       -15.2918
 172   2.0000      -0.560960       -15.2645
 173   2.0000      -0.552583       -15.0366
 174   2.0000      -0.552561       -15.0359
 175   2.0000      -0.551780       -15.0147
 176   2.0000      -0.550614       -14.9830
 177   2.0000      -0.547013       -14.8850
 178   2.0000      -0.545756       -14.8508
 179   2.0000      -0.544798       -14.8247
 180   2.0000      -0.541526       -14.7357
 181   2.0000      -0.538791       -14.6613
 182   2.0000      -0.538724       -14.6594
 183   2.0000      -0.537134       -14.6161
 184   2.0000      -0.536716       -14.6048
 185   2.0000      -0.534427       -14.5425
 186   2.0000      -0.529586       -14.4108
 187   2.0000      -0.525746       -14.3063
 188   2.0000      -0.521324       -14.1860
 189   2.0000      -0.518388       -14.1061
 190   2.0000      -0.513907       -13.9841
 191   2.0000      -0.511740       -13.9252
 192   2.0000      -0.510603       -13.8942
 193   2.0000      -0.507427       -13.8078
 194   2.0000      -0.507247       -13.8029
 195   2.0000      -0.504513       -13.7285
 196   2.0000      -0.503372       -13.6975
 197   2.0000      -0.502265       -13.6673
 198   2.0000      -0.502104       -13.6629
 199   2.0000      -0.498396       -13.5621
 200   2.0000      -0.492125       -13.3914
 201   2.0000      -0.491554       -13.3759
 202   2.0000      -0.485615       -13.2142
 203   2.0000      -0.483674       -13.1615
 204   2.0000      -0.480820       -13.0838
 205   2.0000      -0.479024       -13.0349
 206   2.0000      -0.478816       -13.0292
 207   2.0000      -0.477789       -13.0013
 208   2.0000      -0.476624       -12.9696
 209   2.0000      -0.471453       -12.8289
 210   2.0000      -0.469891       -12.7864
 211   2.0000      -0.458185       -12.4678
 212   2.0000      -0.456597       -12.4246
 213   2.0000      -0.455857       -12.4045
 214   2.0000      -0.454450       -12.3662
 215   2.0000      -0.443665       -12.0727
 216   2.0000      -0.434531       -11.8242
 217   2.0000      -0.423102       -11.5132
 218   2.0000      -0.419280       -11.4092
 219   2.0000      -0.418116       -11.3775
 220   2.0000      -0.404961       -11.0196
 221   2.0000      -0.404186       -10.9985
 222   2.0000      -0.401216       -10.9176
 223   2.0000      -0.391394       -10.6504
 224   2.0000      -0.387875       -10.5546
 225   2.0000      -0.385191       -10.4816
 226   2.0000      -0.374288       -10.1849
 227   2.0000      -0.348133        -9.4732
 228   2.0000      -0.347808        -9.4643
 229   2.0000      -0.346024        -9.4158
 230   2.0000      -0.345419        -9.3993
 231   2.0000      -0.343073        -9.3355
 232   2.0000      -0.341043        -9.2803
 233   2.0000      -0.332359        -9.0439
 234   2.0000      -0.328065        -8.9271
 235   2.0000      -0.323828        -8.8118
 236   2.0000      -0.321639        -8.7522
 237   2.0000      -0.297554        -8.0968
 238   2.0000      -0.288002        -7.8369
 239   0.0000      -0.016108        -0.4383
 240   0.0000      -0.010534        -0.2866
 241   0.0000       0.033453         0.9103
 242   0.0000       0.034499         0.9388
 243   0.0000       0.038302         1.0422

MULLIKEN ATOMIC CHARGES
-----------------------
   0 Ir:    0.323810
   1 S :    0.115082
   2 S :    0.116418
   3 N :   -0.418931
   4 N :   -0.416300
   5 N :   -0.051300
   6 N :   -0.048000
   7 C :    0.173020
   8 C :   -0.098761
   9 H :    0.063338
  10 C :   -0.015061
  11 H :    0.059977
  12 C :   -0.023144
  13 H :    0.052744
  14 C :   -0.068073
  15 H :    0.051425
  16 C :    0.001771
  17 C :    0.086709
  18 C :   -0.080357
  19 H :    0.054657
  20 C :    0.009528
  21 H :    0.063319
  22 C :   -0.033233
  23 H :    0.060169
  24 C :   -0.045306
  25 H :    0.049175
  26 C :   -0.055714
  27 C :    0.278023
  28 C :    0.003869
  29 C :   -0.037514
  30 C :   -0.028772
  31 H :    0.046563
  32 C :   -0.046874
  33 H :    0.047491
  34 C :   -0.024748
  35 H :    0.058387
  36 C :   -0.050606
  37 H :    0.048986
  38 C :   -0.077976
  39 C :   -0.196881
  40 C :    0.175079
  41 C :   -0.099064
  42 H :    0.061009
  43 C :   -0.014825
  44 H :    0.059482
  45 C :   -0.024008
  46 H :    0.053195
  47 C :   -0.068367
  48 H :    0.052149
  49 C :    0.001379
  50 C :    0.083073
  51 C :   -0.078680
  52 H :    0.054458
  53 C :    0.010086
  54 H :    0.063366
  55 C :   -0.032683
  56 H :    0.060251
  57 C :   -0.046481
  58 H :    0.049945
  59 C :   -0.051331
  60 C :    0.273135
  61 C :    0.004901
  62 C :   -0.034054
  63 C :   -0.027752
  64 H :    0.046280
  65 C :   -0.044896
  66 H :    0.047241
  67 C :   -0.025740
  68 H :    0.058270
  69 C :   -0.049883
  70 H :    0.048793
  71 C :   -0.082030
  72 C :   -0.190374
  73 C :    0.039324
  74 C :    0.085235
  75 C :   -0.111724
  76 C :   -0.096513
  77 H :    0.045702
  78 C :    0.012303
  79 H :    0.056733
  80 C :   -0.095078
  81 H :    0.045067
  82 C :   -0.111392
  83 C :    0.066580
  84 H :    0.048117
  85 H :    0.067024
  86 H :    0.067437
  87 C :    0.061900
  88 H :    0.049224
  89 H :    0.068227
  90 H :    0.065205
  91 C :    0.034006
  92 C :    0.082588
  93 C :   -0.109195
  94 C :   -0.096011
  95 H :    0.044765
  96 C :    0.013409
  97 H :    0.056539
  98 C :   -0.095394
  99 H :    0.045437
 100 C :   -0.110827
 101 C :    0.061325
 102 H :    0.066408
 103 H :    0.049109
 104 H :    0.067889
 105 C :    0.065815
 106 H :    0.048872
 107 H :    0.065866
 108 H :    0.067196
Sum of atomic charges:    1.0000000

LOEWDIN ATOMIC CHARGES
----------------------
   0 Ir:   -0.300069
   1 S :    0.374636
   2 S :    0.374547
   3 N :   -0.015735
   4 N :   -0.016497
   5 N :    0.084493
   6 N :    0.084408
   7 C :    0.039999
   8 C :   -0.035669
   9 H :    0.050060
  10 C :   -0.013671
  11 H :    0.048111
  12 C :   -0.035417
  13 H :    0.047161
  14 C :   -0.010157
  15 H :    0.048959
  16 C :   -0.040896
  17 C :    0.016686
  18 C :   -0.024796
  19 H :    0.049687
  20 C :    0.006123
  21 H :    0.052404
  22 C :   -0.027937
  23 H :    0.050466
  24 C :   -0.009026
  25 H :    0.028699
  26 C :   -0.055516
  27 C :    0.127810
  28 C :   -0.056874
  29 C :   -0.071477
  30 C :   -0.007824
  31 H :    0.045461
  32 C :   -0.048690
  33 H :    0.044562
  34 C :   -0.018446
  35 H :    0.047422
  36 C :   -0.053776
  37 H :    0.048201
  38 C :   -0.146283
  39 C :   -0.223469
  40 C :    0.039762
  41 C :   -0.036092
  42 H :    0.049760
  43 C :   -0.013722
  44 H :    0.048457
  45 C :   -0.035462
  46 H :    0.047290
  47 C :   -0.010255
  48 H :    0.049175
  49 C :   -0.041237
  50 C :    0.016581
  51 C :   -0.024643
  52 H :    0.049762
  53 C :    0.006191
  54 H :    0.052432
  55 C :   -0.028104
  56 H :    0.050534
  57 C :   -0.008172
  58 H :    0.030268
  59 C :   -0.055979
  60 C :    0.128371
  61 C :   -0.056633
  62 C :   -0.070091
  63 C :   -0.007373
  64 H :    0.045589
  65 C :   -0.048321
  66 H :    0.044586
  67 C :   -0.018741
  68 H :    0.047330
  69 C :   -0.053982
  70 H :    0.048081
  71 C :   -0.146426
  72 C :   -0.222699
  73 C :    0.158133
  74 C :   -0.019534
  75 C :   -0.007000
  76 C :   -0.045284
  77 H :    0.045665
  78 C :   -0.009476
  79 H :    0.048762
  80 C :   -0.045281
  81 H :    0.045498
  82 C :   -0.007608
  83 C :   -0.050667
  84 H :    0.042807
  85 H :    0.045425
  86 H :    0.045645
  87 C :   -0.050497
  88 H :    0.043363
  89 H :    0.047751
  90 H :    0.044744
  91 C :    0.157304
  92 C :   -0.019511
  93 C :   -0.006733
  94 C :   -0.045173
  95 H :    0.045461
  96 C :   -0.009438
  97 H :    0.048694
  98 C :   -0.045126
  99 H :    0.045592
 100 C :   -0.007542
 101 C :   -0.050693
 102 H :    0.045465
 103 H :    0.043443
 104 H :    0.047690
 105 C :   -0.050256
 106 H :    0.042830
 107 H :    0.045720
 108 H :    0.045918

  Mayer bond orders larger than 0.100000
B(  0-Ir,  3-N ) :   0.4765 B(  0-Ir,  4-N ) :   0.4751 B(  0-Ir, 28-C ) :   0.6712
B(  0-Ir, 61-C ) :   0.6727 B(  0-Ir, 73-C ) :   0.6547 B(  0-Ir, 91-C ) :   0.6531
B(  1-S , 38-C ) :   1.0628 B(  1-S , 39-C ) :   1.0133 B(  2-S , 71-C ) :   1.0630
B(  2-S , 72-C ) :   1.0136 B(  3-N ,  7-C ) :   1.0942 B(  3-N , 27-C ) :   1.4343
B(  4-N , 40-C ) :   1.0932 B(  4-N , 60-C ) :   1.4386 B(  5-N , 73-C ) :   2.5675
B(  5-N , 74-C ) :   0.8910 B(  6-N , 91-C ) :   2.5656 B(  6-N , 92-C ) :   0.8922
B(  7-C ,  8-C ) :   1.3129 B(  7-C , 16-C ) :   1.3490 B(  8-C ,  9-H ) :   0.9839
B(  8-C , 10-C ) :   1.4730 B( 10-C , 11-H ) :   0.9938 B( 10-C , 12-C ) :   1.2994
B( 12-C , 13-H ) :   0.9949 B( 12-C , 14-C ) :   1.4713 B( 14-C , 15-H ) :   0.9950
B( 14-C , 16-C ) :   1.3214 B( 16-C , 17-C ) :   1.0978 B( 17-C , 18-C ) :   1.3258
B( 17-C , 26-C ) :   1.3257 B( 18-C , 19-H ) :   0.9949 B( 18-C , 20-C ) :   1.4746
B( 20-C , 21-H ) :   0.9920 B( 20-C , 22-C ) :   1.3019 B( 22-C , 23-H ) :   0.9924
B( 22-C , 24-C ) :   1.5075 B( 24-C , 25-H ) :   0.9752 B( 24-C , 26-C ) :   1.2848
B( 26-C , 27-C ) :   1.1410 B( 27-C , 39-C ) :   1.1473 B( 28-C , 29-C ) :   1.2224
B( 28-C , 39-C ) :   1.5868 B( 28-C , 73-C ) :   0.1025 B( 29-C , 30-C ) :   1.3066
B( 29-C , 38-C ) :   1.3266 B( 30-C , 31-H ) :   0.9924 B( 30-C , 32-C ) :   1.4638
B( 32-C , 33-H ) :   0.9959 B( 32-C , 34-C ) :   1.3157 B( 34-C , 35-H ) :   0.9934
B( 34-C , 36-C ) :   1.4612 B( 36-C , 37-H ) :   0.9998 B( 36-C , 38-C ) :   1.3416
B( 40-C , 41-C ) :   1.3137 B( 40-C , 49-C ) :   1.3483 B( 41-C , 42-H ) :   0.9854
B( 41-C , 43-C ) :   1.4738 B( 43-C , 44-H ) :   0.9943 B( 43-C , 45-C ) :   1.2993
B( 45-C , 46-H ) :   0.9951 B( 45-C , 47-C ) :   1.4712 B( 47-C , 48-H ) :   0.9953
B( 47-C , 49-C ) :   1.3216 B( 49-C , 50-C ) :   1.0976 B( 50-C , 51-C ) :   1.3270
B( 50-C , 59-C ) :   1.3240 B( 51-C , 52-H ) :   0.9948 B( 51-C , 53-C ) :   1.4739
B( 53-C , 54-H ) :   0.9919 B( 53-C , 55-C ) :   1.3005 B( 55-C , 56-H ) :   0.9927
B( 55-C , 57-C ) :   1.5073 B( 57-C , 58-H ) :   0.9763 B( 57-C , 59-C ) :   1.2852
B( 59-C , 60-C ) :   1.1414 B( 60-C , 72-C ) :   1.1416 B( 61-C , 62-C ) :   1.2214
B( 61-C , 72-C ) :   1.5862 B( 61-C , 91-C ) :   0.1044 B( 62-C , 63-C ) :   1.3082
B( 62-C , 71-C ) :   1.3251 B( 63-C , 64-H ) :   0.9925 B( 63-C , 65-C ) :   1.4623
B( 65-C , 66-H ) :   0.9961 B( 65-C , 67-C ) :   1.3156 B( 67-C , 68-H ) :   0.9933
B( 67-C , 69-C ) :   1.4613 B( 69-C , 70-H ) :   0.9995 B( 69-C , 71-C ) :   1.3423
B( 74-C , 75-C ) :   1.3778 B( 74-C , 82-C ) :   1.3809 B( 75-C , 76-C ) :   1.4223
B( 75-C , 83-C ) :   1.0537 B( 76-C , 77-H ) :   0.9998 B( 76-C , 78-C ) :   1.3797
B( 78-C , 79-H ) :   0.9983 B( 78-C , 80-C ) :   1.3784 B( 80-C , 81-H ) :   1.0005
B( 80-C , 82-C ) :   1.4217 B( 82-C , 87-C ) :   1.0504 B( 83-C , 84-H ) :   0.9536
B( 83-C , 85-H ) :   0.9560 B( 83-C , 86-H ) :   0.9561 B( 87-C , 88-H ) :   0.9535
B( 87-C , 89-H ) :   0.9552 B( 87-C , 90-H ) :   0.9591 B( 92-C , 93-C ) :   1.3796
B( 92-C ,100-C ) :   1.3793 B( 93-C , 94-C ) :   1.4226 B( 93-C ,101-C ) :   1.0503
B( 94-C , 95-H ) :   1.0006 B( 94-C , 96-C ) :   1.3784 B( 96-C , 97-H ) :   0.9985
B( 96-C , 98-C ) :   1.3792 B( 98-C , 99-H ) :   0.9997 B( 98-C ,100-C ) :   1.4216
B(100-C ,105-C ) :   1.0517 B(101-C ,102-H ) :   0.9590 B(101-C ,103-H ) :   0.9527
B(101-C ,104-H ) :   0.9541 B(105-C ,106-H ) :   0.9553 B(105-C ,107-H ) :   0.9565
B(105-C ,108-H ) :   0.9572

MP2 TOTAL ENERGY:    -3423.101757141 Eh

-----------------------------------------------------------------------------
         ABSORPTION SPECTRUM VIA TRANSITION ELECTRIC DIPOLE MOMENTS
-----------------------------------------------------------------------------
State   Energy    Wavelength  fosc         T2        TX        TY        TZ
        (cm-1)      (nm)                 (au**2)    (au)      (au)      (au)
-----------------------------------------------------------------------------
   1   25199.0    396.8   0.142936219   1.86739   0.18101   1.35370   0.04607
   2   25572.4    391.0   0.685261830   8.82186   2.96466   0.05786  -0.17112
   3   32001.9    312.5   0.005619946   0.05781   0.23817  -0.00167   0.03297
   4   32150.2    311.0   0.073823039   0.75593   0.02678  -0.86781  -0.04601
   5   32205.9    310.5   0.146297248   1.49546  -0.43047   0.14972   1.13479
   6   32393.5    308.7   0.189735238   1.92826  -0.02243  -1.38328   0.11952
   7   31566.4    316.8   0.029277852   0.30534   0.03869  -0.08811  -0.54414
   8   32548.6    307.2   0.016971500   0.17166  -0.02268   0.40123  -0.10079
   9   36018.0    277.6   0.345864881   3.16128   1.75259   0.10368  -0.28097
  10   35877.4    278.7   0.032112881   0.29467   0.03244  -0.53825  -0.06245
  11   39219.0    255.0   0.001751881   0.01471   0.00262  -0.12108   0.00619
  12   39539.6    252.9   0.009527832   0.07933   0.19175  -0.00519  -0.20624
  13   38668.9    258.6   0.750400463   6.38861   2.18526  -0.06477  -1.26849
  14   38871.0    257.3   0.339627311   2.87642   0.23394   1.67941  -0.03595
  15   41449.1    241.3   0.205911260   1.63546   0.64063  -0.15687   1.09565
  16   40704.6    245.7   0.282407527   2.28406  -0.81619   0.13683  -1.26459
  17   40344.2    247.9   0.065257131   0.53250  -0.40833  -0.05645  -0.60215
  18   41446.0    241.3   0.055863262   0.44373  -0.03861  -0.64686  -0.15429
  19   40656.9    246.0   0.075507716   0.61141   0.06634   0.12840   0.76846
  20   42200.5    237.0   0.068557704   0.53483   0.04017  -0.72639   0.07461
  21   41990.6    238.1   0.981594611   7.69584  -0.13901   2.76465   0.18227
  22   40881.8    244.6   0.000318724   0.00257  -0.03539   0.02622  -0.02504
  23   41171.7    242.9   0.020346125   0.16269  -0.03631   0.39684   0.06233
  24   41002.7    243.9   0.064780091   0.52012  -0.29885   0.01872  -0.65610
  25   41338.5    241.9   0.000102715   0.00082   0.01089   0.00522   0.02593
  26   43034.4    232.4   0.183669257   1.40506   0.37057  -1.12463  -0.05443
  27   42904.3    233.1   0.460803453   3.53582  -1.85011  -0.33439   0.03329
  28   42711.6    234.1   0.107705919   0.83017   0.67868   0.00163  -0.60792
  29   42109.3    237.5   0.026666803   0.20848   0.25087  -0.08813   0.37119
  30   42923.5    233.0   0.011233688   0.08616   0.09405   0.26927   0.06936
  31   42976.3    232.7   0.034439122   0.26381   0.05768  -0.50409  -0.07986
  32   40768.3    245.3   0.019209023   0.15512  -0.32572  -0.14669   0.16584
  33   40516.9    246.8   0.009001090   0.07314   0.24829  -0.04599  -0.09683
  34   44187.3    226.3   0.022244850   0.16573   0.21060   0.02069   0.34778
  35   44446.8    225.0   0.100015168   0.74080   0.23614  -0.07559   0.82421
  36   44316.4    225.6   0.012928014   0.09604  -0.01043   0.30715   0.03983
  37   43567.7    229.5   0.023623614   0.17851   0.05540  -0.41885   0.00066
  38   44753.7    223.4   0.099367671   0.73096  -0.03353   0.85108   0.07414
  39   45467.6    219.9   0.013902893   0.10067   0.27482   0.07302   0.14074
  40   44294.1    225.8   0.011231747   0.08348  -0.19210   0.18884  -0.10449

FINAL SINGLE POINT ENERGY     -3420.238254050481

DIPOLE MOMENT
-------------
                                X             Y             Z
Electronic contribution:      0.60441     -10.63303      -7.01988
Nuclear contribution   :     -0.75574      13.58611       7.27239
                        -----------------------------------------
Total Dipole Moment    :     -0.15133       2.95308       0.25251
                        -----------------------------------------
Magnitude (a.u.)       :      2.96772
Magnitude (Debye)      :      7.54335

Rotational constants in cm-1:     0.001222     0.001139     0.001103
Rotational constants in MHz :    36.645732    34.144706    33.054055

                             ****ORCA TERMINATED NORMALLY****
TOTAL RUN TIME: 0 days 11 hours 39 minutes 51 seconds 827 msec
