                         Program Version 5.0.4 -  RELEASE  -
|  1> %maxcore 12000
|  2> %pal
|  3>  nprocs 8
|  4> end
|  5> ! RI-SCS-PBE-QIDH def2-SVP def2/J def2-SVP/C RIJCOSX CPCM TIGHTSCF
|  6>
|  7> %TDDFT
|  8>     DCORR      4
|  9>     NROOTS    40
| 10>     doscs true
| 11>     TDA       FALSE
| 12> END
| 13>
| 14> %CPCM
| 15>     SMD		TRUE
| 16>     SMDsolvent	"Acetonitrile"
| 17> END
| 18>
| 19> * xyz 1 1
| 20> Ir                 -0.00454100    0.09341600   -0.03280600
| 21> S                   0.23436200   -3.22247800   -3.13821500
| 22> S                   0.11030600   -3.51117400    2.74490000
| 23> N                   1.72557100    0.01622900   -1.28168100
| 24> N                  -1.71173700   -0.29091200    1.19620800
| 25> N                   1.10410800    1.94004500    2.32414600
| 26> N                  -1.31047900    2.18672200   -2.06454100
| 27> C                   2.70862300    0.98967900   -1.36212600
| 28> C                   2.45549800    2.29931100   -0.89872300
| 29> H                   1.47400300    2.54681700   -0.49925200
| 30> C                   3.41629400    3.28795600   -1.00038700
| 31> H                   3.18715600    4.29797600   -0.65263500
| 32> C                   4.66896800    3.00232700   -1.56264100
| 33> H                   5.42979900    3.78153300   -1.63858900
| 34> C                   4.92922200    1.73153700   -2.04018600
| 35> H                   5.89741400    1.52457200   -2.49759500
| 36> C                   3.96702900    0.70353700   -1.96344800
| 37> C                   4.21005500   -0.63299300   -2.45624200
| 38> C                   5.47557700   -1.05516600   -2.91214000
| 39> H                   6.31359400   -0.35772200   -2.90760000
| 40> C                   5.68136100   -2.35131200   -3.34689200
| 41> H                   6.67231800   -2.65774300   -3.68867700
| 42> C                   4.62842200   -3.27799200   -3.32430100
| 43> H                   4.79804000   -4.31179000   -3.63099800
| 44> C                   3.37599700   -2.88730700   -2.89133300
| 45> H                   2.59299000   -3.64151600   -2.82728200
| 46> C                   3.13189300   -1.56159300   -2.46683200
| 47> C                   1.84885200   -1.14915600   -1.94673300
| 48> C                  -0.50526500   -1.39561600   -1.38836400
| 49> C                  -1.69414800   -2.10422700   -1.74543500
| 50> C                  -3.02900700   -1.88869200   -1.33836400
| 51> H                  -3.26486000   -1.06285600   -0.66475100
| 52> C                  -4.04223700   -2.70288100   -1.81769100
| 53> H                  -5.07237900   -2.53225300   -1.49542200
| 54> C                  -3.75980600   -3.74170300   -2.72344700
| 55> H                  -4.57022900   -4.37609200   -3.08974600
| 56> C                  -2.46424700   -3.96393700   -3.17430500
| 57> H                  -2.25171200   -4.75747100   -3.89393500
| 58> C                  -1.44242300   -3.14257700   -2.68770300
| 59> C                   0.60774500   -1.87701300   -2.05710900
| 60> C                  -2.78786800    0.56179100    1.38709600
| 61> C                  -2.66534400    1.94031300    1.10721800
| 62> H                  -1.71121300    2.33649600    0.76543400
| 63> C                  -3.72149800    2.80637600    1.32010000
| 64> H                  -3.59320300    3.87130800    1.11227800
| 65> C                  -4.94126900    2.32613600    1.81890800
| 66> H                  -5.77661300    3.00930400    1.98420300
| 67> C                  -5.07352100    0.98414700    2.12323500
| 68> H                  -6.01563000    0.62336300    2.53799700
| 69> C                  -4.01282200    0.07596100    1.92715800
| 70> C                  -4.12078500   -1.33117500    2.23840500
| 71> C                  -5.34071400   -1.93943100    2.59757500
| 72> H                  -6.24949700   -1.33973800    2.65433900
| 73> C                  -5.41144200   -3.29581400    2.85708100
| 74> H                  -6.36920500   -3.74693000    3.12531100
| 75> C                  -4.26397100   -4.09597100    2.75068500
| 76> H                  -4.32609600   -5.17277300    2.91872900
| 77> C                  -3.05392000   -3.52345700    2.40899200
| 78> H                  -2.19168100   -4.17547800    2.27372400
| 79> C                  -2.94986100   -2.13583100    2.16192200
| 80> C                  -1.71531600   -1.53189400    1.71985700
| 81> C                   0.64770800   -1.48320300    1.14983400
| 82> C                   1.90643700   -2.08463200    1.45983300
| 83> C                   3.20959200   -1.69176500    1.08463800
| 84> H                   3.35197100   -0.80109900    0.47019800
| 85> C                   4.30687300   -2.41504500    1.52295300
| 86> H                   5.31256900   -2.10608500    1.22776500
| 87> C                   4.14057700   -3.53682200    2.35558600
| 88> H                   5.01666400   -4.09570300    2.69251900
| 89> C                   2.87626600   -3.93814300    2.76995100
| 90> H                   2.75218700   -4.79740400    3.43233800
| 91> C                   1.76954900   -3.20950400    2.32326900
| 92> C                  -0.40582400   -2.13621100    1.76495400
| 93> C                   0.70006100    1.32809300    1.40618500
| 94> C                   1.59522800    2.65929000    3.38664600
| 95> C                   2.26678000    1.95956500    4.41199400
| 96> C                   2.75906300    2.71587100    5.47827200
| 97> H                   3.28426600    2.20481900    6.28881500
| 98> C                   2.58759600    4.09912400    5.51546200
| 99> H                   2.98321300    4.67030900    6.35844800
|100> C                   1.91437600    4.76050700    4.48911300
|101> H                   1.78070300    5.84434300    4.52807600
|102> C                   1.39759200    4.05636600    3.39895100
|103> C                   2.43007200    0.47926300    4.33414100
|104> H                   2.93723400    0.08524800    5.22257000
|105> H                   3.01817300    0.18594400    3.45014700
|106> H                   1.45810300   -0.03110700    4.24104300
|107> C                   0.64821400    4.72416700    2.29583500
|108> H                   0.66955900    5.81527400    2.39993800
|109> H                  -0.40766200    4.40967200    2.28602500
|110> H                   1.05696400    4.46640200    1.30711100
|111> C                  -0.83034600    1.45365400   -1.28196900
|112> C                  -1.88243700    3.09140800   -2.92555600
|113> C                  -1.71330500    4.46617900   -2.65426700
|114> C                  -2.30873000    5.36558300   -3.54172100
|115> H                  -2.19753400    6.43737700   -3.36016400
|116> C                  -3.03168400    4.91175700   -4.64437700
|117> H                  -3.48738800    5.63354500   -5.32615800
|118> C                  -3.17822800    3.54642600   -4.88636800
|119> H                  -3.74606800    3.19931600   -5.75304100
|120> C                  -2.60733900    2.60029200   -4.03165200
|121> C                  -0.91614800    4.91062800   -1.47455500
|122> H                  -1.27382000    4.44708600   -0.54231200
|123> H                  -0.95545000    5.99915700   -1.35106100
|124> H                   0.14213600    4.62239500   -1.57784100
|125> C                  -2.74805200    1.13215900   -4.25040900
|126> H                  -3.30132500    0.91627400   -5.17161300
|127> H                  -3.28105200    0.65139400   -3.41508000
|128> H                  -1.76752800    0.63462700   -4.31651100
|129> *
|130>
|131>                          ****END OF INPUT****

CARTESIAN COORDINATES (ANGSTROEM)
---------------------------------
  Ir    -0.004541    0.093416   -0.032806
  S      0.234362   -3.222478   -3.138215
  S      0.110306   -3.511174    2.744900
  N      1.725571    0.016229   -1.281681
  N     -1.711737   -0.290912    1.196208
  N      1.104108    1.940045    2.324146
  N     -1.310479    2.186722   -2.064541
  C      2.708623    0.989679   -1.362126
  C      2.455498    2.299311   -0.898723
  H      1.474003    2.546817   -0.499252
  C      3.416294    3.287956   -1.000387
  H      3.187156    4.297976   -0.652635
  C      4.668968    3.002327   -1.562641
  H      5.429799    3.781533   -1.638589
  C      4.929222    1.731537   -2.040186
  H      5.897414    1.524572   -2.497595
  C      3.967029    0.703537   -1.963448
  C      4.210055   -0.632993   -2.456242
  C      5.475577   -1.055166   -2.912140
  H      6.313594   -0.357722   -2.907600
  C      5.681361   -2.351312   -3.346892
  H      6.672318   -2.657743   -3.688677
  C      4.628422   -3.277992   -3.324301
  H      4.798040   -4.311790   -3.630998
  C      3.375997   -2.887307   -2.891333
  H      2.592990   -3.641516   -2.827282
  C      3.131893   -1.561593   -2.466832
  C      1.848852   -1.149156   -1.946733
  C     -0.505265   -1.395616   -1.388364
  C     -1.694148   -2.104227   -1.745435
  C     -3.029007   -1.888692   -1.338364
  H     -3.264860   -1.062856   -0.664751
  C     -4.042237   -2.702881   -1.817691
  H     -5.072379   -2.532253   -1.495422
  C     -3.759806   -3.741703   -2.723447
  H     -4.570229   -4.376092   -3.089746
  C     -2.464247   -3.963937   -3.174305
  H     -2.251712   -4.757471   -3.893935
  C     -1.442423   -3.142577   -2.687703
  C      0.607745   -1.877013   -2.057109
  C     -2.787868    0.561791    1.387096
  C     -2.665344    1.940313    1.107218
  H     -1.711213    2.336496    0.765434
  C     -3.721498    2.806376    1.320100
  H     -3.593203    3.871308    1.112278
  C     -4.941269    2.326136    1.818908
  H     -5.776613    3.009304    1.984203
  C     -5.073521    0.984147    2.123235
  H     -6.015630    0.623363    2.537997
  C     -4.012822    0.075961    1.927158
  C     -4.120785   -1.331175    2.238405
  C     -5.340714   -1.939431    2.597575
  H     -6.249497   -1.339738    2.654339
  C     -5.411442   -3.295814    2.857081
  H     -6.369205   -3.746930    3.125311
  C     -4.263971   -4.095971    2.750685
  H     -4.326096   -5.172773    2.918729
  C     -3.053920   -3.523457    2.408992
  H     -2.191681   -4.175478    2.273724
  C     -2.949861   -2.135831    2.161922
  C     -1.715316   -1.531894    1.719857
  C      0.647708   -1.483203    1.149834
  C      1.906437   -2.084632    1.459833
  C      3.209592   -1.691765    1.084638
  H      3.351971   -0.801099    0.470198
  C      4.306873   -2.415045    1.522953
  H      5.312569   -2.106085    1.227765
  C      4.140577   -3.536822    2.355586
  H      5.016664   -4.095703    2.692519
  C      2.876266   -3.938143    2.769951
  H      2.752187   -4.797404    3.432338
  C      1.769549   -3.209504    2.323269
  C     -0.405824   -2.136211    1.764954
  C      0.700061    1.328093    1.406185
  C      1.595228    2.659290    3.386646
  C      2.266780    1.959565    4.411994
  C      2.759063    2.715871    5.478272
  H      3.284266    2.204819    6.288815
  C      2.587596    4.099124    5.515462
  H      2.983213    4.670309    6.358448
  C      1.914376    4.760507    4.489113
  H      1.780703    5.844343    4.528076
  C      1.397592    4.056366    3.398951
  C      2.430072    0.479263    4.334141
  H      2.937234    0.085248    5.222570
  H      3.018173    0.185944    3.450147
  H      1.458103   -0.031107    4.241043
  C      0.648214    4.724167    2.295835
  H      0.669559    5.815274    2.399938
  H     -0.407662    4.409672    2.286025
  H      1.056964    4.466402    1.307111
  C     -0.830346    1.453654   -1.281969
  C     -1.882437    3.091408   -2.925556
  C     -1.713305    4.466179   -2.654267
  C     -2.308730    5.365583   -3.541721
  H     -2.197534    6.437377   -3.360164
  C     -3.031684    4.911757   -4.644377
  H     -3.487388    5.633545   -5.326158
  C     -3.178228    3.546426   -4.886368
  H     -3.746068    3.199316   -5.753041
  C     -2.607339    2.600292   -4.031652
  C     -0.916148    4.910628   -1.474555
  H     -1.273820    4.447086   -0.542312
  H     -0.955450    5.999157   -1.351061
  H      0.142136    4.622395   -1.577841
  C     -2.748052    1.132159   -4.250409
  H     -3.301325    0.916274   -5.171613
  H     -3.281052    0.651394   -3.415080
  H     -1.767528    0.634627   -4.316511

 Total Charge           Charge          ....    1
 Multiplicity           Mult            ....    1
 Number of Electrons    NEL             ....  478
 Basis Dimension        Dim             .... 1174

ORBITAL ENERGIES
----------------

  NO   OCC          E(Eh)            E(eV)
   0   2.0000     -90.752408     -2469.4986
   1   2.0000     -90.752378     -2469.4977
   2   2.0000     -15.167102      -412.7178
   3   2.0000     -15.167036      -412.7160
   4   2.0000     -15.153013      -412.3344
   5   2.0000     -15.152882      -412.3309
   6   2.0000     -10.936383      -297.5941
   7   2.0000     -10.936240      -297.5902
   8   2.0000     -10.931000      -297.4476
   9   2.0000     -10.930863      -297.4439
  10   2.0000     -10.896376      -296.5055
  11   2.0000     -10.896273      -296.5027
  12   2.0000     -10.895447      -296.4802
  13   2.0000     -10.895170      -296.4727
  14   2.0000     -10.875324      -295.9326
  15   2.0000     -10.875234      -295.9302
  16   2.0000     -10.871478      -295.8280
  17   2.0000     -10.871336      -295.8241
  18   2.0000     -10.866798      -295.7006
  19   2.0000     -10.866690      -295.6977
  20   2.0000     -10.866140      -295.6827
  21   2.0000     -10.865905      -295.6763
  22   2.0000     -10.859556      -295.5035
  23   2.0000     -10.859523      -295.5026
  24   2.0000     -10.859367      -295.4984
  25   2.0000     -10.859286      -295.4962
  26   2.0000     -10.859213      -295.4942
  27   2.0000     -10.859212      -295.4942
  28   2.0000     -10.853944      -295.3508
  29   2.0000     -10.853855      -295.3484
  30   2.0000     -10.850120      -295.2468
  31   2.0000     -10.849942      -295.2419
  32   2.0000     -10.849241      -295.2229
  33   2.0000     -10.848947      -295.2148
  34   2.0000     -10.847915      -295.1868
  35   2.0000     -10.847631      -295.1790
  36   2.0000     -10.844896      -295.1046
  37   2.0000     -10.844760      -295.1009
  38   2.0000     -10.844694      -295.0991
  39   2.0000     -10.844565      -295.0956
  40   2.0000     -10.843959      -295.0791
  41   2.0000     -10.843948      -295.0788
  42   2.0000     -10.843900      -295.0775
  43   2.0000     -10.843794      -295.0746
  44   2.0000     -10.843446      -295.0652
  45   2.0000     -10.843390      -295.0636
  46   2.0000     -10.843349      -295.0625
  47   2.0000     -10.842916      -295.0507
  48   2.0000     -10.842416      -295.0371
  49   2.0000     -10.842321      -295.0346
  50   2.0000     -10.842304      -295.0341
  51   2.0000     -10.842275      -295.0333
  52   2.0000     -10.841774      -295.0197
  53   2.0000     -10.841504      -295.0123
  54   2.0000     -10.838441      -294.9290
  55   2.0000     -10.838334      -294.9261
  56   2.0000     -10.835868      -294.8590
  57   2.0000     -10.835851      -294.8585
  58   2.0000     -10.835744      -294.8556
  59   2.0000     -10.835699      -294.8543
  60   2.0000     -10.835256      -294.8423
  61   2.0000     -10.835158      -294.8396
  62   2.0000     -10.823700      -294.5278
  63   2.0000     -10.823667      -294.5269
  64   2.0000     -10.822746      -294.5019
  65   2.0000     -10.822469      -294.4944
  66   2.0000      -8.608706      -234.2548
  67   2.0000      -8.608624      -234.2526
  68   2.0000      -6.400377      -174.1631
  69   2.0000      -6.400300      -174.1610
  70   2.0000      -6.398001      -174.0985
  71   2.0000      -6.397948      -174.0970
  72   2.0000      -6.395190      -174.0220
  73   2.0000      -6.395091      -174.0193
  74   2.0000      -4.086049      -111.1870
  75   2.0000      -2.329545       -63.3901
  76   2.0000      -2.324730       -63.2591
  77   2.0000      -2.322089       -63.1873
  78   2.0000      -1.199032       -32.6273
  79   2.0000      -1.198453       -32.6116
  80   2.0000      -1.186660       -32.2907
  81   2.0000      -1.183225       -32.1972
  82   2.0000      -1.092708       -29.7341
  83   2.0000      -1.091360       -29.6974
  84   2.0000      -1.071131       -29.1470
  85   2.0000      -1.070306       -29.1245
  86   2.0000      -1.066054       -29.0088
  87   2.0000      -1.065894       -29.0044
  88   2.0000      -1.056448       -28.7474
  89   2.0000      -1.056041       -28.7363
  90   2.0000      -1.019177       -27.7332
  91   2.0000      -1.017818       -27.6962
  92   2.0000      -0.975322       -26.5398
  93   2.0000      -0.974695       -26.5228
  94   2.0000      -0.973933       -26.5021
  95   2.0000      -0.973786       -26.4981
  96   2.0000      -0.966648       -26.3038
  97   2.0000      -0.966542       -26.3010
  98   2.0000      -0.962735       -26.1973
  99   2.0000      -0.962370       -26.1874
 100   2.0000      -0.950736       -25.8709
 101   2.0000      -0.948613       -25.8131
 102   2.0000      -0.934520       -25.4296
 103   2.0000      -0.934129       -25.4189
 104   2.0000      -0.909937       -24.7606
 105   2.0000      -0.909661       -24.7531
 106   2.0000      -0.895835       -24.3769
 107   2.0000      -0.895443       -24.3662
 108   2.0000      -0.885874       -24.1059
 109   2.0000      -0.884728       -24.0747
 110   2.0000      -0.877050       -23.8658
 111   2.0000      -0.872895       -23.7527
 112   2.0000      -0.845357       -23.0033
 113   2.0000      -0.844645       -22.9840
 114   2.0000      -0.827108       -22.5068
 115   2.0000      -0.824804       -22.4441
 116   2.0000      -0.805869       -21.9288
 117   2.0000      -0.804560       -21.8932
 118   2.0000      -0.801342       -21.8056
 119   2.0000      -0.800983       -21.7959
 120   2.0000      -0.794121       -21.6091
 121   2.0000      -0.793438       -21.5906
 122   2.0000      -0.753427       -20.5018
 123   2.0000      -0.753137       -20.4939
 124   2.0000      -0.740596       -20.1526
 125   2.0000      -0.738196       -20.0873
 126   2.0000      -0.731828       -19.9140
 127   2.0000      -0.731087       -19.8939
 128   2.0000      -0.730978       -19.8909
 129   2.0000      -0.730924       -19.8894
 130   2.0000      -0.711315       -19.3559
 131   2.0000      -0.707011       -19.2387
 132   2.0000      -0.696718       -18.9587
 133   2.0000      -0.694781       -18.9059
 134   2.0000      -0.690096       -18.7785
 135   2.0000      -0.689295       -18.7567
 136   2.0000      -0.675136       -18.3714
 137   2.0000      -0.672269       -18.2934
 138   2.0000      -0.654577       -17.8119
 139   2.0000      -0.636696       -17.3254
 140   2.0000      -0.635771       -17.3002
 141   2.0000      -0.629181       -17.1209
 142   2.0000      -0.625451       -17.0194
 143   2.0000      -0.623433       -16.9645
 144   2.0000      -0.622475       -16.9384
 145   2.0000      -0.616549       -16.7771
 146   2.0000      -0.615416       -16.7463
 147   2.0000      -0.613941       -16.7062
 148   2.0000      -0.601842       -16.3770
 149   2.0000      -0.601682       -16.3726
 150   2.0000      -0.595411       -16.2020
 151   2.0000      -0.593185       -16.1414
 152   2.0000      -0.589833       -16.0502
 153   2.0000      -0.588934       -16.0257
 154   2.0000      -0.586365       -15.9558
 155   2.0000      -0.584517       -15.9055
 156   2.0000      -0.583601       -15.8806
 157   2.0000      -0.579507       -15.7692
 158   2.0000      -0.572639       -15.5823
 159   2.0000      -0.570761       -15.5312
 160   2.0000      -0.569324       -15.4921
 161   2.0000      -0.567036       -15.4298
 162   2.0000      -0.560397       -15.2492
 163   2.0000      -0.559023       -15.2118
 164   2.0000      -0.552554       -15.0358
 165   2.0000      -0.551699       -15.0125
 166   2.0000      -0.551366       -15.0034
 167   2.0000      -0.546296       -14.8655
 168   2.0000      -0.545849       -14.8533
 169   2.0000      -0.543099       -14.7785
 170   2.0000      -0.542083       -14.7508
 171   2.0000      -0.537877       -14.6364
 172   2.0000      -0.536823       -14.6077
 173   2.0000      -0.527953       -14.3663
 174   2.0000      -0.527495       -14.3539
 175   2.0000      -0.525901       -14.3105
 176   2.0000      -0.525054       -14.2874
 177   2.0000      -0.520290       -14.1578
 178   2.0000      -0.519664       -14.1408
 179   2.0000      -0.518393       -14.1062
 180   2.0000      -0.513737       -13.9795
 181   2.0000      -0.512657       -13.9501
 182   2.0000      -0.511952       -13.9309
 183   2.0000      -0.510768       -13.8987
 184   2.0000      -0.510383       -13.8882
 185   2.0000      -0.507885       -13.8203
 186   2.0000      -0.504323       -13.7233
 187   2.0000      -0.500462       -13.6183
 188   2.0000      -0.496877       -13.5207
 189   2.0000      -0.493929       -13.4405
 190   2.0000      -0.487455       -13.2643
 191   2.0000      -0.484862       -13.1938
 192   2.0000      -0.483648       -13.1607
 193   2.0000      -0.482208       -13.1216
 194   2.0000      -0.481266       -13.0959
 195   2.0000      -0.478823       -13.0294
 196   2.0000      -0.478323       -13.0158
 197   2.0000      -0.475730       -12.9453
 198   2.0000      -0.472601       -12.8601
 199   2.0000      -0.472108       -12.8467
 200   2.0000      -0.468175       -12.7397
 201   2.0000      -0.467114       -12.7108
 202   2.0000      -0.460380       -12.5276
 203   2.0000      -0.458544       -12.4776
 204   2.0000      -0.455729       -12.4010
 205   2.0000      -0.454803       -12.3758
 206   2.0000      -0.454135       -12.3576
 207   2.0000      -0.448695       -12.2096
 208   2.0000      -0.447643       -12.1810
 209   2.0000      -0.446025       -12.1370
 210   2.0000      -0.445330       -12.1181
 211   2.0000      -0.432742       -11.7755
 212   2.0000      -0.432049       -11.7566
 213   2.0000      -0.430716       -11.7204
 214   2.0000      -0.428230       -11.6527
 215   2.0000      -0.418322       -11.3831
 216   2.0000      -0.409817       -11.1517
 217   2.0000      -0.399274       -10.8648
 218   2.0000      -0.394461       -10.7338
 219   2.0000      -0.394054       -10.7227
 220   2.0000      -0.377482       -10.2718
 221   2.0000      -0.377103       -10.2615
 222   2.0000      -0.376717       -10.2510
 223   2.0000      -0.364352        -9.9145
 224   2.0000      -0.362753        -9.8710
 225   2.0000      -0.358813        -9.7638
 226   2.0000      -0.348459        -9.4821
 227   2.0000      -0.322823        -8.7845
 228   2.0000      -0.322050        -8.7634
 229   2.0000      -0.319598        -8.6967
 230   2.0000      -0.319069        -8.6823
 231   2.0000      -0.317636        -8.6433
 232   2.0000      -0.315925        -8.5968
 233   2.0000      -0.307171        -8.3585
 234   2.0000      -0.303456        -8.2575
 235   2.0000      -0.299358        -8.1459
 236   2.0000      -0.297433        -8.0936
 237   2.0000      -0.274173        -7.4606
 238   2.0000      -0.264946        -7.2096
 239   0.0000      -0.043588        -1.1861
 240   0.0000      -0.038406        -1.0451
 241   0.0000       0.005134         0.1397
 242   0.0000       0.006104         0.1661
 243   0.0000       0.009757         0.2655

MULLIKEN ATOMIC CHARGES
-----------------------
   0 Ir:    0.532591
   1 S :    0.128292
   2 S :    0.129303
   3 N :   -0.553940
   4 N :   -0.550649
   5 N :   -0.187151
   6 N :   -0.184740
   7 C :    0.219077
   8 C :   -0.129703
   9 H :    0.098304
  10 C :   -0.032423
  11 H :    0.089492
  12 C :   -0.054760
  13 H :    0.082459
  14 C :   -0.056518
  15 H :    0.083113
  16 C :   -0.070454
  17 C :    0.065097
  18 C :   -0.081698
  19 H :    0.086343
  20 C :   -0.013574
  21 H :    0.092006
  22 C :   -0.060944
  23 H :    0.089695
  24 C :   -0.031173
  25 H :    0.083606
  26 C :   -0.123298
  27 C :    0.346697
  28 C :   -0.030447
  29 C :   -0.092861
  30 C :   -0.037876
  31 H :    0.089931
  32 C :   -0.076527
  33 H :    0.078363
  34 C :   -0.050188
  35 H :    0.088159
  36 C :   -0.058881
  37 H :    0.079892
  38 C :   -0.091557
  39 C :   -0.222392
  40 C :    0.221026
  41 C :   -0.130444
  42 H :    0.096565
  43 C :   -0.032531
  44 H :    0.089314
  45 C :   -0.055675
  46 H :    0.082907
  47 C :   -0.057068
  48 H :    0.083856
  49 C :   -0.070281
  50 C :    0.061488
  51 C :   -0.079840
  52 H :    0.085977
  53 C :   -0.012874
  54 H :    0.091992
  55 C :   -0.060336
  56 H :    0.089728
  57 C :   -0.032868
  58 H :    0.083878
  59 C :   -0.118805
  60 C :    0.341734
  61 C :   -0.028281
  62 C :   -0.086712
  63 C :   -0.042797
  64 H :    0.091086
  65 C :   -0.072802
  66 H :    0.078060
  67 C :   -0.051640
  68 H :    0.088007
  69 C :   -0.057564
  70 H :    0.079670
  71 C :   -0.096593
  72 C :   -0.215393
  73 C :    0.103333
  74 C :    0.135902
  75 C :   -0.171360
  76 C :   -0.095454
  77 H :    0.076251
  78 C :   -0.023511
  79 H :    0.085879
  80 C :   -0.093401
  81 H :    0.075489
  82 C :   -0.172184
  83 C :    0.031824
  84 H :    0.070677
  85 H :    0.093183
  86 H :    0.090091
  87 C :    0.024483
  88 H :    0.071352
  89 H :    0.091361
  90 H :    0.091929
  91 C :    0.099921
  92 C :    0.132936
  93 C :   -0.169045
  94 C :   -0.094565
  95 H :    0.075218
  96 C :   -0.022117
  97 H :    0.085628
  98 C :   -0.094433
  99 H :    0.075901
 100 C :   -0.171094
 101 C :    0.020978
 102 H :    0.093752
 103 H :    0.071749
 104 H :    0.092161
 105 C :    0.033757
 106 H :    0.071142
 107 H :    0.089955
 108 H :    0.088861
Sum of atomic charges:    1.0000000

LOEWDIN ATOMIC CHARGES
----------------------
   0 Ir:   -0.294137
   1 S :    0.372329
   2 S :    0.372248
   3 N :   -0.029498
   4 N :   -0.030308
   5 N :    0.070681
   6 N :    0.070600
   7 C :    0.043011
   8 C :   -0.036886
   9 H :    0.051873
  10 C :   -0.014167
  11 H :    0.051279
  12 C :   -0.037350
  13 H :    0.050240
  14 C :   -0.010591
  15 H :    0.051728
  16 C :   -0.045349
  17 C :    0.012497
  18 C :   -0.024822
  19 H :    0.052548
  20 C :    0.005333
  21 H :    0.055349
  22 C :   -0.029018
  23 H :    0.053610
  24 C :   -0.008739
  25 H :    0.031514
  26 C :   -0.058837
  27 C :    0.128781
  28 C :   -0.058849
  29 C :   -0.074793
  30 C :   -0.006868
  31 H :    0.048128
  32 C :   -0.050138
  33 H :    0.047945
  34 C :   -0.019733
  35 H :    0.050657
  36 C :   -0.054027
  37 H :    0.051733
  38 C :   -0.149527
  39 C :   -0.222978
  40 C :    0.042822
  41 C :   -0.037322
  42 H :    0.051617
  43 C :   -0.014311
  44 H :    0.051640
  45 C :   -0.037406
  46 H :    0.050371
  47 C :   -0.010712
  48 H :    0.051957
  49 C :   -0.045696
  50 C :    0.012359
  51 C :   -0.024662
  52 H :    0.052626
  53 C :    0.005408
  54 H :    0.055361
  55 C :   -0.029202
  56 H :    0.053668
  57 C :   -0.007887
  58 H :    0.033097
  59 C :   -0.059317
  60 C :    0.129409
  61 C :   -0.058477
  62 C :   -0.073292
  63 C :   -0.006550
  64 H :    0.048230
  65 C :   -0.049745
  66 H :    0.047946
  67 C :   -0.020041
  68 H :    0.050549
  69 C :   -0.054245
  70 H :    0.051596
  71 C :   -0.149599
  72 C :   -0.222206
  73 C :    0.166520
  74 C :   -0.017408
  75 C :   -0.012575
  76 C :   -0.046426
  77 H :    0.048896
  78 C :   -0.011477
  79 H :    0.051607
  80 C :   -0.046359
  81 H :    0.048699
  82 C :   -0.013198
  83 C :   -0.050138
  84 H :    0.044258
  85 H :    0.047166
  86 H :    0.047495
  87 C :   -0.050115
  88 H :    0.044699
  89 H :    0.049521
  90 H :    0.046553
  91 C :    0.165759
  92 C :   -0.017401
  93 C :   -0.012266
  94 C :   -0.046292
  95 H :    0.048665
  96 C :   -0.011421
  97 H :    0.051535
  98 C :   -0.046234
  99 H :    0.048814
 100 C :   -0.013189
 101 C :   -0.050308
 102 H :    0.047220
 103 H :    0.044802
 104 H :    0.049455
 105 C :   -0.049881
 106 H :    0.044261
 107 H :    0.047600
 108 H :    0.047715

  Mayer bond orders larger than 0.100000
B(  0-Ir,  3-N ) :   0.4382 B(  0-Ir,  4-N ) :   0.4359 B(  0-Ir, 28-C ) :   0.6242
B(  0-Ir, 61-C ) :   0.6268 B(  0-Ir, 73-C ) :   0.6209 B(  0-Ir, 91-C ) :   0.6201
B(  1-S , 38-C ) :   1.0717 B(  1-S , 39-C ) :   1.0148 B(  2-S , 71-C ) :   1.0716
B(  2-S , 72-C ) :   1.0153 B(  3-N ,  7-C ) :   1.0820 B(  3-N , 27-C ) :   1.3931
B(  4-N , 40-C ) :   1.0817 B(  4-N , 60-C ) :   1.3978 B(  5-N , 73-C ) :   2.5557
B(  5-N , 74-C ) :   0.8666 B(  6-N , 91-C ) :   2.5539 B(  6-N , 92-C ) :   0.8677
B(  7-C ,  8-C ) :   1.3209 B(  7-C , 16-C ) :   1.3385 B(  8-C ,  9-H ) :   0.9837
B(  8-C , 10-C ) :   1.4817 B( 10-C , 11-H ) :   0.9918 B( 10-C , 12-C ) :   1.3017
B( 12-C , 13-H ) :   0.9934 B( 12-C , 14-C ) :   1.4776 B( 14-C , 15-H ) :   0.9884
B( 14-C , 16-C ) :   1.3325 B( 16-C , 17-C ) :   1.1180 B( 17-C , 18-C ) :   1.3355
B( 17-C , 26-C ) :   1.3199 B( 18-C , 19-H ) :   0.9889 B( 18-C , 20-C ) :   1.4788
B( 20-C , 21-H ) :   0.9899 B( 20-C , 22-C ) :   1.3039 B( 22-C , 23-H ) :   0.9905
B( 22-C , 24-C ) :   1.5119 B( 24-C , 25-H ) :   0.9715 B( 24-C , 26-C ) :   1.2912
B( 26-C , 27-C ) :   1.1598 B( 27-C , 39-C ) :   1.1798 B( 28-C , 29-C ) :   1.2769
B( 28-C , 39-C ) :   1.5949 B( 28-C , 73-C ) :   0.1184 B( 29-C , 30-C ) :   1.3151
B( 29-C , 38-C ) :   1.3124 B( 30-C , 31-H ) :   0.9914 B( 30-C , 32-C ) :   1.4720
B( 32-C , 33-H ) :   0.9943 B( 32-C , 34-C ) :   1.3173 B( 34-C , 35-H ) :   0.9911
B( 34-C , 36-C ) :   1.4622 B( 36-C , 37-H ) :   0.9969 B( 36-C , 38-C ) :   1.3557
B( 40-C , 41-C ) :   1.3215 B( 40-C , 49-C ) :   1.3374 B( 41-C , 42-H ) :   0.9851
B( 41-C , 43-C ) :   1.4821 B( 43-C , 44-H ) :   0.9922 B( 43-C , 45-C ) :   1.3015
B( 45-C , 46-H ) :   0.9935 B( 45-C , 47-C ) :   1.4775 B( 47-C , 48-H ) :   0.9888
B( 47-C , 49-C ) :   1.3323 B( 49-C , 50-C ) :   1.1178 B( 50-C , 51-C ) :   1.3368
B( 50-C , 59-C ) :   1.3182 B( 51-C , 52-H ) :   0.9889 B( 51-C , 53-C ) :   1.4781
B( 53-C , 54-H ) :   0.9898 B( 53-C , 55-C ) :   1.3022 B( 55-C , 56-H ) :   0.9908
B( 55-C , 57-C ) :   1.5120 B( 57-C , 58-H ) :   0.9725 B( 57-C , 59-C ) :   1.2917
B( 59-C , 60-C ) :   1.1605 B( 60-C , 72-C ) :   1.1741 B( 61-C , 62-C ) :   1.2744
B( 61-C , 72-C ) :   1.5928 B( 61-C , 91-C ) :   0.1208 B( 62-C , 63-C ) :   1.3172
B( 62-C , 71-C ) :   1.3109 B( 63-C , 64-H ) :   0.9911 B( 63-C , 65-C ) :   1.4716
B( 65-C , 66-H ) :   0.9945 B( 65-C , 67-C ) :   1.3172 B( 67-C , 68-H ) :   0.9911
B( 67-C , 69-C ) :   1.4623 B( 69-C , 70-H ) :   0.9965 B( 69-C , 71-C ) :   1.3566
B( 74-C , 75-C ) :   1.3771 B( 74-C , 82-C ) :   1.3808 B( 75-C , 76-C ) :   1.4329
B( 75-C , 83-C ) :   1.0284 B( 76-C , 77-H ) :   0.9969 B( 76-C , 78-C ) :   1.3878
B( 78-C , 79-H ) :   0.9960 B( 78-C , 80-C ) :   1.3862 B( 80-C , 81-H ) :   0.9977
B( 80-C , 82-C ) :   1.4319 B( 82-C , 87-C ) :   1.0263 B( 83-C , 84-H ) :   0.9604
B( 83-C , 85-H ) :   0.9590 B( 83-C , 86-H ) :   0.9592 B( 87-C , 88-H ) :   0.9599
B( 87-C , 89-H ) :   0.9580 B( 87-C , 90-H ) :   0.9618 B( 92-C , 93-C ) :   1.3788
B( 92-C ,100-C ) :   1.3794 B( 93-C , 94-C ) :   1.4327 B( 93-C ,101-C ) :   1.0258
B( 94-C , 95-H ) :   0.9978 B( 94-C , 96-C ) :   1.3865 B( 96-C , 97-H ) :   0.9963
B( 96-C , 98-C ) :   1.3871 B( 98-C , 99-H ) :   0.9969 B( 98-C ,100-C ) :   1.4323
B(100-C ,105-C ) :   1.0264 B(101-C ,102-H ) :   0.9615 B(101-C ,103-H ) :   0.9597
B(101-C ,104-H ) :   0.9571 B(105-C ,106-H ) :   0.9614 B(105-C ,107-H ) :   0.9594
B(105-C ,108-H ) :   0.9603

MP2 TOTAL ENERGY:    -3424.814670009 Eh

-----------------------------------------------------------------------------
         ABSORPTION SPECTRUM VIA TRANSITION ELECTRIC DIPOLE MOMENTS
-----------------------------------------------------------------------------
State   Energy    Wavelength  fosc         T2        TX        TY        TZ
        (cm-1)      (nm)                 (au**2)    (au)      (au)      (au)
-----------------------------------------------------------------------------
   1   23036.9    434.1   0.132238851   1.88977  -0.10515  -1.36967  -0.05229
   2   23510.2    425.3   0.638588535   8.94213   2.98456   0.09278  -0.16102
   3   25789.5    387.8   0.014206420   0.18135  -0.04584  -0.37824   0.19022
   4   26305.1    380.2   0.070148393   0.87792   0.05979  -0.92626  -0.12804
   5   28493.1    351.0   0.033152818   0.38305  -0.00714   0.61767   0.03853
   6   27979.1    357.4   0.025013760   0.29432   0.32414  -0.02632   0.43423
   7   28704.4    348.4   0.118843396   1.36302   0.38435   0.04544  -1.10147
   8   28744.9    347.9   0.135744861   1.55467  -0.04669   1.24476   0.05534
   9   32824.3    304.7   0.295573792   2.96446   1.70592   0.08273  -0.21782
  10   32883.7    304.1   0.016304514   0.16323  -0.05906  -0.39710  -0.04531
  11   38839.4    257.5   0.003152685   0.02672  -0.02894  -0.16051   0.01098
  12   38733.7    258.2   0.027064359   0.23003   0.42483   0.00784  -0.22245
  13   34665.0    288.5   0.653238460   6.20378   2.19340  -0.09884  -1.17601
  14   34785.3    287.5   0.253831581   2.40229   0.32883   1.51236  -0.08319
  15   32617.9    306.6   0.003560583   0.03594   0.07827   0.12922  -0.11452
  16   32685.5    305.9   0.008753867   0.08817  -0.18809   0.02373   0.22854
  17   39818.3    251.1   0.334598230   2.76641   0.88060  -0.47752   1.32776
  18   39385.6    253.9   0.211134634   1.76481  -0.58667  -0.44237  -1.10677
  19   37730.1    265.0   0.035544706   0.31014   0.13354   0.11020   0.52931
  20   39499.1    253.2   0.125088519   1.04257  -0.13826   1.00703  -0.09667
  21   37601.2    265.9   0.079326356   0.69453   0.04441   0.80721   0.20243
  22   37029.0    270.1   0.038250859   0.34007  -0.33564   0.14885  -0.45306
  23   38700.8    258.4   0.794473636   6.75827  -0.11495   2.59056   0.18456
  24   38092.3    262.5   0.048344140   0.41781  -0.53249  -0.00551  -0.36639
  25   39552.8    252.8   0.000371076   0.00309   0.00113  -0.03560  -0.04266
  26   36317.7    275.3   0.063762569   0.57799   0.00204  -0.05651   0.75815
  27   35216.6    284.0   0.021059853   0.19687   0.05452  -0.43861   0.03897
  28   37836.4    264.3   0.004381913   0.03813   0.16686  -0.05226  -0.08691
  29   37930.2    263.6   0.122503656   1.06326  -0.60864  -0.03278   0.83171
  30   36350.8    275.1   0.051078850   0.46260  -0.00730   0.67976   0.02160
  31   38102.0    262.5   0.149421382   1.29104   1.12415  -0.05152  -0.15710
  32   38554.3    259.4   0.090229484   0.77046   0.84793   0.16589   0.15479
  33   39281.7    254.6   0.061400836   0.51459  -0.06743  -0.71378  -0.02359
  34   39140.3    255.5   0.020420360   0.17176   0.10913   0.39879  -0.02850
  35   38984.9    256.5   0.005834617   0.04927  -0.15349   0.12413   0.10150
  36   38972.5    256.6   0.099178489   0.83779  -0.71843  -0.13082  -0.55185
  37   39402.2    253.8   0.036478396   0.30478  -0.27465   0.45956  -0.13473
  38   37519.8    266.5   0.026107666   0.22908  -0.45452  -0.06444  -0.13540
  39   38108.1    262.4   0.001328187   0.01147  -0.00324   0.10312  -0.02882
  40   37966.2    263.4   0.006248942   0.05419  -0.04452  -0.06384   0.21938

FINAL SINGLE POINT ENERGY     -3421.222211296103

DIPOLE MOMENT
-------------
                                X             Y             Z
Electronic contribution:      0.60296     -10.60799      -7.01442
Nuclear contribution   :     -0.75574      13.58611       7.27239
                        -----------------------------------------
Total Dipole Moment    :     -0.15278       2.97812       0.25796
                        -----------------------------------------
Magnitude (a.u.)       :      2.99317
Magnitude (Debye)      :      7.60804

Rotational constants in cm-1:     0.001222     0.001139     0.001103
Rotational constants in MHz :    36.645732    34.144706    33.054055

                             ****ORCA TERMINATED NORMALLY****
TOTAL RUN TIME: 0 days 11 hours 4 minutes 46 seconds 325 msec
