                         Program Version 5.0.4 -  RELEASE  -
|  1> %maxcore 8000
|  2> %pal
|  3>  nprocs 8
|  4> end
|  5> ! RI-SOS-wPBEPP86 def2-SVP def2/J def2-SVP/C RIJCOSX CPCM TIGHTSCF
|  6>
|  7> %TDDFT
|  8>     DCORR     1
|  9>     NROOTS    40
| 10>     doscs     TRUE
| 11>     TDA       FALSE
| 12> END
| 13>
| 14> %CPCM
| 15>     SMD		TRUE
| 16>     SMDsolvent	"Acetonitrile"
| 17> END
| 18>
| 19> * xyz 1 1
| 20> Ir                 -0.00795300    0.09393300   -0.02177500
| 21> S                   0.19065800   -3.16501400   -3.19042300
| 22> S                   0.03240200   -3.57554000    2.67460300
| 23> N                   1.72630000    0.01403700   -1.26914600
| 24> N                  -1.72809000   -0.28689300    1.19120600
| 25> N                   1.12502100    1.89178600    2.36391900
| 26> N                  -1.26377200    2.24237800   -2.02570000
| 27> C                   2.72506200    0.97335600   -1.33372400
| 28> C                   2.49323400    2.28001200   -0.85097900
| 29> H                   1.51617700    2.53638100   -0.44558300
| 30> C                   3.46796900    3.25600000   -0.94205100
| 31> H                   3.25465200    4.26429500   -0.57965400
| 32> C                   4.71433000    2.96064700   -1.51321600
| 33> H                   5.48537100    3.73037800   -1.58262900
| 34> C                   4.95524000    1.69251800   -2.00762100
| 35> H                   5.91858500    1.47786300   -2.47184100
| 36> C                   3.97907300    0.67711300   -1.94014600
| 37> C                   4.20446200   -0.65776200   -2.44585200
| 38> C                   5.46594500   -1.09605900   -2.89780900
| 39> H                   6.31505000   -0.41233500   -2.88141800
| 40> C                   5.65363400   -2.39149400   -3.34296900
| 41> H                   6.64170400   -2.71066300   -3.68150800
| 42> C                   4.58623500   -3.30171200   -3.33468200
| 43> H                   4.74126600   -4.33555000   -3.64895400
| 44> C                   3.33754700   -2.89501600   -2.90571100
| 45> H                   2.54232300   -3.63725000   -2.85231300
| 46> C                   3.11224800   -1.56919900   -2.47127100
| 47> C                   1.83370900   -1.14226600   -1.95251400
| 48> C                  -0.52473200   -1.36164800   -1.40654900
| 49> C                  -1.72363000   -2.04387200   -1.78045500
| 50> C                  -3.05551400   -1.81468400   -1.37183500
| 51> H                  -3.27782900   -0.99783200   -0.68283100
| 52> C                  -4.08069400   -2.60271100   -1.86933100
| 53> H                  -5.10879500   -2.42214300   -1.54588800
| 54> C                  -3.81274700   -3.62736900   -2.79544700
| 55> H                  -4.63237000   -4.24131100   -3.17583100
| 56> C                  -2.51988900   -3.86131200   -3.24836000
| 57> H                  -2.31841100   -4.64376500   -3.98302600
| 58> C                  -1.48606600   -3.06682800   -2.74301100
| 59> C                   0.58217100   -1.84825600   -2.08074000
| 60> C                  -2.78972600    0.58215000    1.39012400
| 61> C                  -2.64145700    1.96146000    1.12820000
| 62> H                  -1.67738800    2.34338700    0.79928500
| 63> C                  -3.68303000    2.84383500    1.34522300
| 64> H                  -3.53393200    3.90869200    1.15107300
| 65> C                  -4.91425000    2.37892500    1.83035200
| 66> H                  -5.73879800    3.07448800    1.99798300
| 67> C                  -5.07130800    1.03607300    2.11886400
| 68> H                  -6.02214100    0.68695000    2.52333900
| 69> C                  -4.02512900    0.11172800    1.91922200
| 70> C                  -4.15691900   -1.29593400    2.21851100
| 71> C                  -5.38682900   -1.88417800    2.57728000
| 72> H                  -6.28421500   -1.26809600    2.63949800
| 73> C                  -5.48149300   -3.23988700    2.83156200
| 74> H                  -6.44626300   -3.67496300    3.10113100
| 75> C                  -4.34858100   -4.05952800    2.71876600
| 76> H                  -4.42886100   -5.13564000    2.88349500
| 77> C                  -3.12956400   -3.50702200    2.37619700
| 78> H                  -2.28017200   -4.17447300    2.23718600
| 79> C                  -3.00003200   -2.12036300    2.13549800
| 80> C                  -1.75426500   -1.53456900    1.69825300
| 81> C                   0.61064300   -1.51853400    1.13169800
| 82> C                   1.85616000   -2.15723000    1.42082500
| 83> C                   3.16687000   -1.78634300    1.04966800
| 84> H                   3.32843000   -0.87970100    0.46450700
| 85> C                   4.24793400   -2.55129900    1.45619900
| 86> H                   5.25913000   -2.25961600    1.16200700
| 87> C                   4.05806000   -3.69379500    2.25480500
| 88> H                   4.92129800   -4.28636400    2.56642600
| 89> C                   2.78664500   -4.07349000    2.66778500
| 90> H                   2.64480500   -4.94954000    3.30414900
| 91> C                   1.69622900   -3.30307400    2.25197900
| 92> C                  -0.45598600   -2.16355300    1.73319300
| 93> C                   0.70544200    1.29539600    1.44276400
| 94> C                   1.64581800    2.59252500    3.42462300
| 95> C                   2.32349800    1.87161300    4.43097500
| 96> C                   2.85009700    2.60939200    5.49390800
| 97> H                   3.38108200    2.08177800    6.28994900
| 98> C                   2.70631200    3.99536600    5.54502300
| 99> H                   3.12865600    4.55192400    6.38484700
|100> C                   2.02712300    4.67815700    4.53670400
|101> H                   1.91554900    5.76400700    4.58635300
|102> C                   1.47600400    3.99304500    3.45127200
|103> C                   2.46141100    0.38986200    4.33497400
|104> H                   2.97221500   -0.02223100    5.21297200
|105> H                   3.03592700    0.09821000    3.44151600
|106> H                   1.48123900   -0.10519400    4.24589100
|107> C                   0.72229300    4.68451500    2.36588000
|108> H                   0.74682800    5.77311600    2.49231800
|109> H                  -0.33391800    4.37161600    2.35357300
|110> H                   1.12721500    4.44677200    1.37045700
|111> C                  -0.80019500    1.48945600   -1.25198900
|112> C                  -1.81886000    3.16450800   -2.87932400
|113> C                  -1.62701100    4.53383000   -2.59613700
|114> C                  -2.20646900    5.45093100   -3.47609300
|115> H                  -2.07788000    6.51910600   -3.28494500
|116> C                  -2.93621000    5.01880000   -4.58299900
|117> H                  -3.37962600    5.75394500   -5.25853500
|118> C                  -3.10513300    3.65826500   -4.83705100
|119> H                  -3.67791500    3.32829800   -5.70716000
|120> C                  -2.55064800    2.69532000   -3.99043000
|121> C                  -0.82487000    4.95410800   -1.41108200
|122> H                  -1.19811900    4.49474200   -0.48299800
|123> H                  -0.83905500    6.04263500   -1.28203400
|124> H                   0.22665900    4.64102800   -1.51036200
|125> C                  -2.71341500    1.23165800   -4.22277700
|126> H                  -3.28157700    1.03239700   -5.13868600
|127> H                  -3.24030300    0.74877900   -3.38497000
|128> H                  -1.73987600    0.72330300   -4.30797000
|129> *
|130>
|131>                          ****END OF INPUT****

CARTESIAN COORDINATES (ANGSTROEM)
---------------------------------
  Ir    -0.007953    0.093933   -0.021775
  S      0.190658   -3.165014   -3.190423
  S      0.032402   -3.575540    2.674603
  N      1.726300    0.014037   -1.269146
  N     -1.728090   -0.286893    1.191206
  N      1.125021    1.891786    2.363919
  N     -1.263772    2.242378   -2.025700
  C      2.725062    0.973356   -1.333724
  C      2.493234    2.280012   -0.850979
  H      1.516177    2.536381   -0.445583
  C      3.467969    3.256000   -0.942051
  H      3.254652    4.264295   -0.579654
  C      4.714330    2.960647   -1.513216
  H      5.485371    3.730378   -1.582629
  C      4.955240    1.692518   -2.007621
  H      5.918585    1.477863   -2.471841
  C      3.979073    0.677113   -1.940146
  C      4.204462   -0.657762   -2.445852
  C      5.465945   -1.096059   -2.897809
  H      6.315050   -0.412335   -2.881418
  C      5.653634   -2.391494   -3.342969
  H      6.641704   -2.710663   -3.681508
  C      4.586235   -3.301712   -3.334682
  H      4.741266   -4.335550   -3.648954
  C      3.337547   -2.895016   -2.905711
  H      2.542323   -3.637250   -2.852313
  C      3.112248   -1.569199   -2.471271
  C      1.833709   -1.142266   -1.952514
  C     -0.524732   -1.361648   -1.406549
  C     -1.723630   -2.043872   -1.780455
  C     -3.055514   -1.814684   -1.371835
  H     -3.277829   -0.997832   -0.682831
  C     -4.080694   -2.602711   -1.869331
  H     -5.108795   -2.422143   -1.545888
  C     -3.812747   -3.627369   -2.795447
  H     -4.632370   -4.241311   -3.175831
  C     -2.519889   -3.861312   -3.248360
  H     -2.318411   -4.643765   -3.983026
  C     -1.486066   -3.066828   -2.743011
  C      0.582171   -1.848256   -2.080740
  C     -2.789726    0.582150    1.390124
  C     -2.641457    1.961460    1.128200
  H     -1.677388    2.343387    0.799285
  C     -3.683030    2.843835    1.345223
  H     -3.533932    3.908692    1.151073
  C     -4.914250    2.378925    1.830352
  H     -5.738798    3.074488    1.997983
  C     -5.071308    1.036073    2.118864
  H     -6.022141    0.686950    2.523339
  C     -4.025129    0.111728    1.919222
  C     -4.156919   -1.295934    2.218511
  C     -5.386829   -1.884178    2.577280
  H     -6.284215   -1.268096    2.639498
  C     -5.481493   -3.239887    2.831562
  H     -6.446263   -3.674963    3.101131
  C     -4.348581   -4.059528    2.718766
  H     -4.428861   -5.135640    2.883495
  C     -3.129564   -3.507022    2.376197
  H     -2.280172   -4.174473    2.237186
  C     -3.000032   -2.120363    2.135498
  C     -1.754265   -1.534569    1.698253
  C      0.610643   -1.518534    1.131698
  C      1.856160   -2.157230    1.420825
  C      3.166870   -1.786343    1.049668
  H      3.328430   -0.879701    0.464507
  C      4.247934   -2.551299    1.456199
  H      5.259130   -2.259616    1.162007
  C      4.058060   -3.693795    2.254805
  H      4.921298   -4.286364    2.566426
  C      2.786645   -4.073490    2.667785
  H      2.644805   -4.949540    3.304149
  C      1.696229   -3.303074    2.251979
  C     -0.455986   -2.163553    1.733193
  C      0.705442    1.295396    1.442764
  C      1.645818    2.592525    3.424623
  C      2.323498    1.871613    4.430975
  C      2.850097    2.609392    5.493908
  H      3.381082    2.081778    6.289949
  C      2.706312    3.995366    5.545023
  H      3.128656    4.551924    6.384847
  C      2.027123    4.678157    4.536704
  H      1.915549    5.764007    4.586353
  C      1.476004    3.993045    3.451272
  C      2.461411    0.389862    4.334974
  H      2.972215   -0.022231    5.212972
  H      3.035927    0.098210    3.441516
  H      1.481239   -0.105194    4.245891
  C      0.722293    4.684515    2.365880
  H      0.746828    5.773116    2.492318
  H     -0.333918    4.371616    2.353573
  H      1.127215    4.446772    1.370457
  C     -0.800195    1.489456   -1.251989
  C     -1.818860    3.164508   -2.879324
  C     -1.627011    4.533830   -2.596137
  C     -2.206469    5.450931   -3.476093
  H     -2.077880    6.519106   -3.284945
  C     -2.936210    5.018800   -4.582999
  H     -3.379626    5.753945   -5.258535
  C     -3.105133    3.658265   -4.837051
  H     -3.677915    3.328298   -5.707160
  C     -2.550648    2.695320   -3.990430
  C     -0.824870    4.954108   -1.411082
  H     -1.198119    4.494742   -0.482998
  H     -0.839055    6.042635   -1.282034
  H      0.226659    4.641028   -1.510362
  C     -2.713415    1.231658   -4.222777
  H     -3.281577    1.032397   -5.138686
  H     -3.240303    0.748779   -3.384970
  H     -1.739876    0.723303   -4.307970

 Total Charge           Charge          ....    1
 Multiplicity           Mult            ....    1
 Number of Electrons    NEL             ....  478
 Basis Dimension        Dim             .... 1174

ORBITAL ENERGIES
----------------

  NO   OCC          E(Eh)            E(eV)
   0   2.0000     -90.836423     -2471.7847
   1   2.0000     -90.836364     -2471.7831
   2   2.0000     -15.219725      -414.1498
   3   2.0000     -15.219483      -414.1432
   4   2.0000     -15.204047      -413.7231
   5   2.0000     -15.203903      -413.7192
   6   2.0000     -10.985998      -298.9442
   7   2.0000     -10.985836      -298.9398
   8   2.0000     -10.979833      -298.7764
   9   2.0000     -10.979451      -298.7661
  10   2.0000     -10.943170      -297.7788
  11   2.0000     -10.943017      -297.7746
  12   2.0000     -10.942573      -297.7626
  13   2.0000     -10.942466      -297.7596
  14   2.0000     -10.922437      -297.2146
  15   2.0000     -10.922392      -297.2134
  16   2.0000     -10.918981      -297.1206
  17   2.0000     -10.918687      -297.1126
  18   2.0000     -10.913883      -296.9818
  19   2.0000     -10.913626      -296.9749
  20   2.0000     -10.912612      -296.9473
  21   2.0000     -10.912466      -296.9433
  22   2.0000     -10.906621      -296.7842
  23   2.0000     -10.906554      -296.7824
  24   2.0000     -10.906372      -296.7775
  25   2.0000     -10.906224      -296.7735
  26   2.0000     -10.906194      -296.7726
  27   2.0000     -10.906015      -296.7677
  28   2.0000     -10.901027      -296.6320
  29   2.0000     -10.900888      -296.6283
  30   2.0000     -10.896879      -296.5192
  31   2.0000     -10.896719      -296.5148
  32   2.0000     -10.896437      -296.5071
  33   2.0000     -10.896330      -296.5042
  34   2.0000     -10.894650      -296.4585
  35   2.0000     -10.894530      -296.4552
  36   2.0000     -10.891716      -296.3787
  37   2.0000     -10.891471      -296.3720
  38   2.0000     -10.891456      -296.3716
  39   2.0000     -10.891278      -296.3667
  40   2.0000     -10.890737      -296.3520
  41   2.0000     -10.890613      -296.3486
  42   2.0000     -10.890522      -296.3462
  43   2.0000     -10.890470      -296.3448
  44   2.0000     -10.890466      -296.3446
  45   2.0000     -10.890142      -296.3358
  46   2.0000     -10.889875      -296.3286
  47   2.0000     -10.889765      -296.3256
  48   2.0000     -10.889049      -296.3061
  49   2.0000     -10.888970      -296.3039
  50   2.0000     -10.888890      -296.3018
  51   2.0000     -10.888786      -296.2989
  52   2.0000     -10.888748      -296.2979
  53   2.0000     -10.888637      -296.2949
  54   2.0000     -10.884923      -296.1938
  55   2.0000     -10.884733      -296.1887
  56   2.0000     -10.882139      -296.1181
  57   2.0000     -10.882119      -296.1175
  58   2.0000     -10.882051      -296.1157
  59   2.0000     -10.881914      -296.1119
  60   2.0000     -10.881874      -296.1109
  61   2.0000     -10.881761      -296.1078
  62   2.0000     -10.869627      -295.7776
  63   2.0000     -10.869609      -295.7771
  64   2.0000     -10.868428      -295.7450
  65   2.0000     -10.868396      -295.7441
  66   2.0000      -8.657225      -235.5751
  67   2.0000      -8.657118      -235.5722
  68   2.0000      -6.443820      -175.3453
  69   2.0000      -6.443713      -175.3423
  70   2.0000      -6.441512      -175.2824
  71   2.0000      -6.441435      -175.2804
  72   2.0000      -6.438739      -175.2070
  73   2.0000      -6.438623      -175.2039
  74   2.0000      -4.128370      -112.3386
  75   2.0000      -2.369318       -64.4724
  76   2.0000      -2.364712       -64.3471
  77   2.0000      -2.361746       -64.2664
  78   2.0000      -1.239101       -33.7177
  79   2.0000      -1.238510       -33.7016
  80   2.0000      -1.226471       -33.3740
  81   2.0000      -1.222998       -33.2795
  82   2.0000      -1.132131       -30.8068
  83   2.0000      -1.130724       -30.7686
  84   2.0000      -1.110412       -30.2159
  85   2.0000      -1.109558       -30.1926
  86   2.0000      -1.105206       -30.0742
  87   2.0000      -1.105024       -30.0692
  88   2.0000      -1.095703       -29.8156
  89   2.0000      -1.095237       -29.8029
  90   2.0000      -1.058102       -28.7924
  91   2.0000      -1.056709       -28.7545
  92   2.0000      -1.013941       -27.5907
  93   2.0000      -1.013274       -27.5726
  94   2.0000      -1.012395       -27.5487
  95   2.0000      -1.012224       -27.5440
  96   2.0000      -1.005225       -27.3536
  97   2.0000      -1.005075       -27.3495
  98   2.0000      -1.001146       -27.2426
  99   2.0000      -1.000754       -27.2319
 100   2.0000      -0.989259       -26.9191
 101   2.0000      -0.987043       -26.8588
 102   2.0000      -0.972820       -26.4718
 103   2.0000      -0.972371       -26.4596
 104   2.0000      -0.947837       -25.7919
 105   2.0000      -0.947538       -25.7838
 106   2.0000      -0.933768       -25.4091
 107   2.0000      -0.933386       -25.3987
 108   2.0000      -0.923574       -25.1317
 109   2.0000      -0.922373       -25.0991
 110   2.0000      -0.914946       -24.8969
 111   2.0000      -0.910687       -24.7811
 112   2.0000      -0.882568       -24.0159
 113   2.0000      -0.881819       -23.9955
 114   2.0000      -0.864564       -23.5260
 115   2.0000      -0.862155       -23.4604
 116   2.0000      -0.843028       -22.9400
 117   2.0000      -0.841632       -22.9020
 118   2.0000      -0.838595       -22.8193
 119   2.0000      -0.838183       -22.8081
 120   2.0000      -0.831533       -22.6272
 121   2.0000      -0.830831       -22.6081
 122   2.0000      -0.790063       -21.4987
 123   2.0000      -0.789808       -21.4918
 124   2.0000      -0.777398       -21.1541
 125   2.0000      -0.774874       -21.0854
 126   2.0000      -0.768293       -20.9063
 127   2.0000      -0.767674       -20.8895
 128   2.0000      -0.767612       -20.8878
 129   2.0000      -0.767436       -20.8830
 130   2.0000      -0.747975       -20.3534
 131   2.0000      -0.743528       -20.2324
 132   2.0000      -0.732945       -19.9444
 133   2.0000      -0.730749       -19.8847
 134   2.0000      -0.726749       -19.7758
 135   2.0000      -0.725876       -19.7521
 136   2.0000      -0.711294       -19.3553
 137   2.0000      -0.708343       -19.2750
 138   2.0000      -0.691770       -18.8240
 139   2.0000      -0.672818       -18.3083
 140   2.0000      -0.671665       -18.2769
 141   2.0000      -0.665062       -18.0972
 142   2.0000      -0.661782       -18.0080
 143   2.0000      -0.659657       -17.9502
 144   2.0000      -0.658176       -17.9099
 145   2.0000      -0.652587       -17.7578
 146   2.0000      -0.651001       -17.7146
 147   2.0000      -0.649587       -17.6762
 148   2.0000      -0.637205       -17.3392
 149   2.0000      -0.637016       -17.3341
 150   2.0000      -0.631252       -17.1772
 151   2.0000      -0.628789       -17.1102
 152   2.0000      -0.626093       -17.0369
 153   2.0000      -0.624245       -16.9866
 154   2.0000      -0.621990       -16.9252
 155   2.0000      -0.620051       -16.8725
 156   2.0000      -0.619035       -16.8448
 157   2.0000      -0.615693       -16.7538
 158   2.0000      -0.608197       -16.5499
 159   2.0000      -0.606752       -16.5106
 160   2.0000      -0.605345       -16.4723
 161   2.0000      -0.602402       -16.3922
 162   2.0000      -0.595004       -16.1909
 163   2.0000      -0.593796       -16.1580
 164   2.0000      -0.587614       -15.9898
 165   2.0000      -0.586183       -15.9509
 166   2.0000      -0.585869       -15.9423
 167   2.0000      -0.580661       -15.8006
 168   2.0000      -0.580530       -15.7970
 169   2.0000      -0.577300       -15.7091
 170   2.0000      -0.576183       -15.6787
 171   2.0000      -0.572542       -15.5797
 172   2.0000      -0.571084       -15.5400
 173   2.0000      -0.562605       -15.3093
 174   2.0000      -0.561778       -15.2868
 175   2.0000      -0.560705       -15.2576
 176   2.0000      -0.559789       -15.2326
 177   2.0000      -0.554799       -15.0969
 178   2.0000      -0.553844       -15.0708
 179   2.0000      -0.552504       -15.0344
 180   2.0000      -0.549042       -14.9402
 181   2.0000      -0.546768       -14.8783
 182   2.0000      -0.546282       -14.8651
 183   2.0000      -0.545048       -14.8315
 184   2.0000      -0.544624       -14.8200
 185   2.0000      -0.542870       -14.7722
 186   2.0000      -0.538780       -14.6609
 187   2.0000      -0.535058       -14.5597
 188   2.0000      -0.530795       -14.4437
 189   2.0000      -0.527710       -14.3597
 190   2.0000      -0.521409       -14.1883
 191   2.0000      -0.519271       -14.1301
 192   2.0000      -0.518455       -14.1079
 193   2.0000      -0.515911       -14.0386
 194   2.0000      -0.514453       -13.9990
 195   2.0000      -0.512243       -13.9388
 196   2.0000      -0.511639       -13.9224
 197   2.0000      -0.509975       -13.8771
 198   2.0000      -0.507905       -13.8208
 199   2.0000      -0.506512       -13.7829
 200   2.0000      -0.501502       -13.6466
 201   2.0000      -0.500762       -13.6264
 202   2.0000      -0.493476       -13.4282
 203   2.0000      -0.491541       -13.3755
 204   2.0000      -0.489140       -13.3102
 205   2.0000      -0.487966       -13.2782
 206   2.0000      -0.487475       -13.2649
 207   2.0000      -0.483013       -13.1435
 208   2.0000      -0.481891       -13.1129
 209   2.0000      -0.479200       -13.0397
 210   2.0000      -0.478425       -13.0186
 211   2.0000      -0.465558       -12.6685
 212   2.0000      -0.464691       -12.6449
 213   2.0000      -0.464475       -12.6390
 214   2.0000      -0.461920       -12.5695
 215   2.0000      -0.451861       -12.2958
 216   2.0000      -0.443567       -12.0701
 217   2.0000      -0.432420       -11.7667
 218   2.0000      -0.428179       -11.6513
 219   2.0000      -0.428048       -11.6478
 220   2.0000      -0.410014       -11.1571
 221   2.0000      -0.409785       -11.1508
 222   2.0000      -0.409052       -11.1309
 223   2.0000      -0.396349       -10.7852
 224   2.0000      -0.395431       -10.7602
 225   2.0000      -0.390276       -10.6199
 226   2.0000      -0.379808       -10.3351
 227   2.0000      -0.353107        -9.6085
 228   2.0000      -0.352307        -9.5868
 229   2.0000      -0.349792        -9.5183
 230   2.0000      -0.349236        -9.5032
 231   2.0000      -0.347874        -9.4661
 232   2.0000      -0.345812        -9.4100
 233   2.0000      -0.336942        -9.1686
 234   2.0000      -0.333084        -9.0637
 235   2.0000      -0.328852        -8.9485
 236   2.0000      -0.326906        -8.8956
 237   2.0000      -0.302986        -8.2447
 238   2.0000      -0.293046        -7.9742
 239   0.0000      -0.025709        -0.6996
 240   0.0000      -0.020673        -0.5625
 241   0.0000       0.024188         0.6582
 242   0.0000       0.025198         0.6857
 243   0.0000       0.029224         0.7952

MULLIKEN ATOMIC CHARGES
-----------------------
   0 Ir:    0.459066
   1 S :    0.134480
   2 S :    0.133833
   3 N :   -0.527202
   4 N :   -0.525130
   5 N :   -0.155776
   6 N :   -0.154079
   7 C :    0.208675
   8 C :   -0.124775
   9 H :    0.089616
  10 C :   -0.040517
  11 H :    0.097939
  12 C :   -0.063632
  13 H :    0.091608
  14 C :   -0.067822
  15 H :    0.090914
  16 C :   -0.059549
  17 C :    0.063614
  18 C :   -0.091912
  19 H :    0.093896
  20 C :   -0.022400
  21 H :    0.101602
  22 C :   -0.070301
  23 H :    0.098901
  24 C :   -0.042221
  25 H :    0.087820
  26 C :   -0.109811
  27 C :    0.329655
  28 C :   -0.019698
  29 C :   -0.088261
  30 C :   -0.039227
  31 H :    0.085863
  32 C :   -0.083106
  33 H :    0.086940
  34 C :   -0.059700
  35 H :    0.097306
  36 C :   -0.066458
  37 H :    0.088969
  38 C :   -0.095895
  39 C :   -0.219643
  40 C :    0.208616
  41 C :   -0.125484
  42 H :    0.088772
  43 C :   -0.040545
  44 H :    0.097809
  45 C :   -0.063750
  46 H :    0.092020
  47 C :   -0.068483
  48 H :    0.091557
  49 C :   -0.058991
  50 C :    0.060739
  51 C :   -0.090459
  52 H :    0.093744
  53 C :   -0.021492
  54 H :    0.101613
  55 C :   -0.069600
  56 H :    0.098934
  57 C :   -0.044116
  58 H :    0.087859
  59 C :   -0.107155
  60 C :    0.327761
  61 C :   -0.018738
  62 C :   -0.083658
  63 C :   -0.041632
  64 H :    0.086602
  65 C :   -0.080806
  66 H :    0.086695
  67 C :   -0.060214
  68 H :    0.097062
  69 C :   -0.065223
  70 H :    0.088679
  71 C :   -0.099524
  72 C :   -0.213520
  73 C :    0.097401
  74 C :    0.117971
  75 C :   -0.157109
  76 C :   -0.108817
  77 H :    0.084685
  78 C :   -0.029959
  79 H :    0.095128
  80 C :   -0.106855
  81 H :    0.083958
  82 C :   -0.158639
  83 C :    0.007703
  84 H :    0.079800
  85 H :    0.094972
  86 H :    0.095175
  87 C :    0.003383
  88 H :    0.080213
  89 H :    0.096245
  90 H :    0.093201
  91 C :    0.092823
  92 C :    0.115215
  93 C :   -0.154856
  94 C :   -0.108275
  95 H :    0.083553
  96 C :   -0.028133
  97 H :    0.094733
  98 C :   -0.108009
  99 H :    0.084097
 100 C :   -0.157238
 101 C :    0.001014
 102 H :    0.094159
 103 H :    0.080817
 104 H :    0.095934
 105 C :    0.007607
 106 H :    0.080060
 107 H :    0.093628
 108 H :    0.095762
Sum of atomic charges:    1.0000000

LOEWDIN ATOMIC CHARGES
----------------------
   0 Ir:   -0.305624
   1 S :    0.372553
   2 S :    0.372639
   3 N :   -0.029793
   4 N :   -0.029825
   5 N :    0.074030
   6 N :    0.073831
   7 C :    0.042427
   8 C :   -0.040159
   9 H :    0.052345
  10 C :   -0.015740
  11 H :    0.054205
  12 C :   -0.040294
  13 H :    0.053312
  14 C :   -0.012439
  15 H :    0.054398
  16 C :   -0.046585
  17 C :    0.013777
  18 C :   -0.028584
  19 H :    0.055067
  20 C :    0.004143
  21 H :    0.058603
  22 C :   -0.032162
  23 H :    0.056681
  24 C :   -0.010589
  25 H :    0.033774
  26 C :   -0.060968
  27 C :    0.132881
  28 C :   -0.056195
  29 C :   -0.076011
  30 C :   -0.009314
  31 H :    0.049071
  32 C :   -0.052666
  33 H :    0.050958
  34 C :   -0.021409
  35 H :    0.053792
  36 C :   -0.057052
  37 H :    0.054704
  38 C :   -0.148409
  39 C :   -0.225928
  40 C :    0.041810
  41 C :   -0.040247
  42 H :    0.052227
  43 C :   -0.015779
  44 H :    0.054671
  45 C :   -0.040144
  46 H :    0.053467
  47 C :   -0.012565
  48 H :    0.054563
  49 C :   -0.046824
  50 C :    0.013780
  51 C :   -0.028362
  52 H :    0.055180
  53 C :    0.004311
  54 H :    0.058654
  55 C :   -0.032138
  56 H :    0.056768
  57 C :   -0.010200
  58 H :    0.034277
  59 C :   -0.061328
  60 C :    0.133140
  61 C :   -0.056403
  62 C :   -0.074974
  63 C :   -0.008917
  64 H :    0.049172
  65 C :   -0.052444
  66 H :    0.050968
  67 C :   -0.021466
  68 H :    0.053738
  69 C :   -0.057349
  70 H :    0.054564
  71 C :   -0.148539
  72 C :   -0.225172
  73 C :    0.168515
  74 C :   -0.020153
  75 C :   -0.011695
  76 C :   -0.049990
  77 H :    0.051674
  78 C :   -0.013039
  79 H :    0.054746
  80 C :   -0.050000
  81 H :    0.051470
  82 C :   -0.012358
  83 C :   -0.057534
  84 H :    0.047641
  85 H :    0.048945
  86 H :    0.049703
  87 C :   -0.057108
  88 H :    0.048040
  89 H :    0.051569
  90 H :    0.048308
  91 C :    0.167763
  92 C :   -0.020017
  93 C :   -0.011476
  94 C :   -0.049992
  95 H :    0.051405
  96 C :   -0.012992
  97 H :    0.054635
  98 C :   -0.049980
  99 H :    0.051518
 100 C :   -0.012240
 101 C :   -0.057153
 102 H :    0.048599
 103 H :    0.048197
 104 H :    0.051329
 105 C :   -0.057516
 106 H :    0.047543
 107 H :    0.049260
 108 H :    0.050509

  Mayer bond orders larger than 0.100000
B(  0-Ir,  3-N ) :   0.4453 B(  0-Ir,  4-N ) :   0.4442 B(  0-Ir, 28-C ) :   0.6373
B(  0-Ir, 61-C ) :   0.6387 B(  0-Ir, 73-C ) :   0.6309 B(  0-Ir, 91-C ) :   0.6304
B(  1-S , 38-C ) :   1.0715 B(  1-S , 39-C ) :   1.0139 B(  2-S , 71-C ) :   1.0718
B(  2-S , 72-C ) :   1.0141 B(  3-N ,  7-C ) :   1.0820 B(  3-N , 27-C ) :   1.4082
B(  4-N , 40-C ) :   1.0812 B(  4-N , 60-C ) :   1.4115 B(  5-N , 73-C ) :   2.5647
B(  5-N , 74-C ) :   0.8714 B(  6-N , 91-C ) :   2.5634 B(  6-N , 92-C ) :   0.8722
B(  7-C ,  8-C ) :   1.3227 B(  7-C , 16-C ) :   1.3461 B(  8-C ,  9-H ) :   0.9831
B(  8-C , 10-C ) :   1.4853 B( 10-C , 11-H ) :   0.9887 B( 10-C , 12-C ) :   1.3070
B( 12-C , 13-H ) :   0.9905 B( 12-C , 14-C ) :   1.4840 B( 14-C , 15-H ) :   0.9854
B( 14-C , 16-C ) :   1.3323 B( 16-C , 17-C ) :   1.1123 B( 17-C , 18-C ) :   1.3362
B( 17-C , 26-C ) :   1.3276 B( 18-C , 19-H ) :   0.9857 B( 18-C , 20-C ) :   1.4856
B( 20-C , 21-H ) :   0.9868 B( 20-C , 22-C ) :   1.3082 B( 22-C , 23-H ) :   0.9875
B( 22-C , 24-C ) :   1.5188 B( 24-C , 25-H ) :   0.9696 B( 24-C , 26-C ) :   1.2903
B( 26-C , 27-C ) :   1.1562 B( 27-C , 39-C ) :   1.1720 B( 28-C , 29-C ) :   1.2648
B( 28-C , 39-C ) :   1.6004 B( 28-C , 73-C ) :   0.1135 B( 29-C , 30-C ) :   1.3154
B( 29-C , 38-C ) :   1.3213 B( 30-C , 31-H ) :   0.9902 B( 30-C , 32-C ) :   1.4759
B( 32-C , 33-H ) :   0.9918 B( 32-C , 34-C ) :   1.3217 B( 34-C , 35-H ) :   0.9884
B( 34-C , 36-C ) :   1.4692 B( 36-C , 37-H ) :   0.9935 B( 36-C , 38-C ) :   1.3544
B( 40-C , 41-C ) :   1.3235 B( 40-C , 49-C ) :   1.3464 B( 41-C , 42-H ) :   0.9838
B( 41-C , 43-C ) :   1.4866 B( 43-C , 44-H ) :   0.9891 B( 43-C , 45-C ) :   1.3062
B( 45-C , 46-H ) :   0.9904 B( 45-C , 47-C ) :   1.4848 B( 47-C , 48-H ) :   0.9857
B( 47-C , 49-C ) :   1.3316 B( 49-C , 50-C ) :   1.1124 B( 50-C , 51-C ) :   1.3374
B( 50-C , 59-C ) :   1.3264 B( 51-C , 52-H ) :   0.9857 B( 51-C , 53-C ) :   1.4851
B( 53-C , 54-H ) :   0.9867 B( 53-C , 55-C ) :   1.3066 B( 55-C , 56-H ) :   0.9876
B( 55-C , 57-C ) :   1.5197 B( 57-C , 58-H ) :   0.9703 B( 57-C , 59-C ) :   1.2900
B( 59-C , 60-C ) :   1.1563 B( 60-C , 72-C ) :   1.1677 B( 61-C , 62-C ) :   1.2631
B( 61-C , 72-C ) :   1.5986 B( 61-C , 91-C ) :   0.1156 B( 62-C , 63-C ) :   1.3165
B( 62-C , 71-C ) :   1.3201 B( 63-C , 64-H ) :   0.9895 B( 63-C , 65-C ) :   1.4759
B( 65-C , 66-H ) :   0.9920 B( 65-C , 67-C ) :   1.3214 B( 67-C , 68-H ) :   0.9882
B( 67-C , 69-C ) :   1.4698 B( 69-C , 70-H ) :   0.9930 B( 69-C , 71-C ) :   1.3547
B( 74-C , 75-C ) :   1.3812 B( 74-C , 82-C ) :   1.3842 B( 75-C , 76-C ) :   1.4335
B( 75-C , 83-C ) :   1.0278 B( 76-C , 77-H ) :   0.9939 B( 76-C , 78-C ) :   1.3934
B( 78-C , 79-H ) :   0.9931 B( 78-C , 80-C ) :   1.3913 B( 80-C , 81-H ) :   0.9947
B( 80-C , 82-C ) :   1.4332 B( 82-C , 87-C ) :   1.0256 B( 83-C , 84-H ) :   0.9605
B( 83-C , 85-H ) :   0.9582 B( 83-C , 86-H ) :   0.9589 B( 87-C , 88-H ) :   0.9600
B( 87-C , 89-H ) :   0.9580 B( 87-C , 90-H ) :   0.9608 B( 92-C , 93-C ) :   1.3827
B( 92-C ,100-C ) :   1.3832 B( 93-C , 94-C ) :   1.4334 B( 93-C ,101-C ) :   1.0253
B( 94-C , 95-H ) :   0.9949 B( 94-C , 96-C ) :   1.3919 B( 96-C , 97-H ) :   0.9934
B( 96-C , 98-C ) :   1.3924 B( 98-C , 99-H ) :   0.9940 B( 98-C ,100-C ) :   1.4331
B(100-C ,105-C ) :   1.0252 B(101-C ,102-H ) :   0.9609 B(101-C ,103-H ) :   0.9598
B(101-C ,104-H ) :   0.9568 B(105-C ,106-H ) :   0.9614 B(105-C ,107-H ) :   0.9589
B(105-C ,108-H ) :   0.9598

MP2 TOTAL ENERGY:    -3426.117316755 Eh

-----------------------------------------------------------------------------
         ABSORPTION SPECTRUM VIA TRANSITION ELECTRIC DIPOLE MOMENTS
-----------------------------------------------------------------------------
State   Energy    Wavelength  fosc         T2        TX        TY        TZ
        (cm-1)      (nm)                 (au**2)    (au)      (au)      (au)
-----------------------------------------------------------------------------
   1   23068.9    433.5   0.135157112   1.92880   0.17691   1.37537   0.07659
   2   23443.8    426.6   0.638673081   8.96863  -2.99025  -0.01971   0.16322
   3   28314.6    353.2   0.005590545   0.06500   0.25372   0.01716   0.01823
   4   28308.4    353.3   0.083854971   0.97519  -0.02882   0.98464   0.06954
   5   29250.6    341.9   0.137381167   1.54621   0.08402  -1.22709  -0.18277
   6   29025.5    344.5   0.129185630   1.46525   0.46375   0.20794  -1.09861
   7   28209.3    354.5   0.028207696   0.32919   0.06732   0.04891   0.56769
   8   29271.7    341.6   0.037520290   0.42198   0.01520  -0.64939   0.00611
   9   33207.9    301.1   0.299029695   2.96448   1.70794   0.07294  -0.20521
  10   33124.4    301.9   0.016849101   0.16746  -0.00361   0.40745   0.03783
  11   38580.6    259.2   0.000889655   0.00759   0.01611  -0.08562   0.00121
  12   38886.8    257.2   0.004945009   0.04186  -0.10222  -0.00307   0.17722
  13   35896.4    278.6   0.733564834   6.72764  -2.26073   0.02929   1.27118
  14   35980.6    277.9   0.319861698   2.92664   0.20225   1.69868   0.01478
  15   41232.9    242.5   0.476048796   3.80087   1.00997  -0.17541   1.65833
  16   40198.9    248.8   0.042251902   0.34603   0.02322   0.58121   0.08762
  17   35977.8    277.9   0.045857218   0.41961  -0.42319   0.05172  -0.48770
  18   36197.7    276.3   0.003370355   0.03065  -0.03267  -0.02893  -0.16955
  19   37756.0    264.9   0.084511805   0.73690  -0.07517   0.00179  -0.85513
  20   40726.7    245.5   0.017570080   0.14203   0.00406   0.33473  -0.17311
  21   39040.3    256.1   0.982848211   8.28799   0.08726  -2.86836  -0.22991
  22   37282.2    268.2   0.009317301   0.08227  -0.28514   0.02913  -0.01094
  23   37137.8    269.3   0.019358736   0.17161   0.00176   0.41379   0.01955
  24   38435.4    260.2   0.052208445   0.44718   0.39200  -0.03898   0.54037
  25   39201.0    255.1   0.001733512   0.01456  -0.03018   0.11676  -0.00381
  26   40238.7    248.5   0.171459010   1.40279   0.18629  -1.16548  -0.09870
  27   40057.7    249.6   0.418086357   3.43602   1.80935   0.20381  -0.34747
  28   39520.4    253.0   0.038015569   0.31668   0.52898  -0.01073  -0.19168
  29   39164.0    255.3   0.063833042   0.53658  -0.36112   0.00617  -0.63729
  30   39597.0    252.5   0.001879434   0.01563  -0.04614  -0.11105  -0.03413
  31   40031.6    249.8   0.013746812   0.11305  -0.02357   0.33152   0.05087
  32   38062.1    262.7   0.014150793   0.12240   0.34670   0.04682  -0.00185
  33   41341.6    241.9   0.049302798   0.39261  -0.38784   0.01222  -0.49198
  34   38438.0    260.2   0.006057047   0.05188  -0.07669  -0.00131  -0.21446
  35   41255.1    242.4   0.061329735   0.48941  -0.17287   0.08573  -0.67244
  36   40657.1    246.0   0.003198948   0.02590   0.00231  -0.13796  -0.08285
  37   41337.8    241.9   0.002075223   0.01653   0.03576  -0.12204   0.01884
  38   40177.6    248.9   0.086763627   0.71093  -0.02934   0.83885   0.08001
  39   42789.5    233.7   0.011740047   0.09032   0.21736  -0.06166   0.19818
  40   43876.2    227.9   0.003460568   0.02597   0.06761  -0.13642  -0.05277

FINAL SINGLE POINT ENERGY     -3421.196029272432

DIPOLE MOMENT
-------------
                                X             Y             Z
Electronic contribution:     -0.45722     -10.54304      -5.65479
Nuclear contribution   :      0.36946      13.49996       5.95783
                        -----------------------------------------
Total Dipole Moment    :     -0.08776       2.95692       0.30304
                        -----------------------------------------
Magnitude (a.u.)       :      2.97370
Magnitude (Debye)      :      7.55854

Rotational constants in cm-1:     0.001223     0.001140     0.001100
Rotational constants in MHz :    36.666721    34.176548    32.965387

                             ****ORCA TERMINATED NORMALLY****
TOTAL RUN TIME: 0 days 12 hours 52 minutes 7 seconds 195 msec
