                         Program Version 5.0.4 -  RELEASE  -
|  1> %maxcore 12000
|  2> %pal
|  3>  nprocs 8
|  4> end
|  5> ! RI-B2PLYP def2-SVP def2/J def2-SVP/C RIJCOSX CPCM TIGHTSCF
|  6>
|  7> %TDDFT
|  8>     DCORR      4
|  9>     NROOTS    40
| 10>     TDA       FALSE
| 11> END
| 12>
| 13> %CPCM
| 14>     SMD		TRUE
| 15>     SMDsolvent	"Acetonitrile"
| 16> END
| 17>
| 18> * xyz 1 1
| 19> Ir                 -0.00454100    0.09341600   -0.03280600
| 20> S                   0.23436200   -3.22247800   -3.13821500
| 21> S                   0.11030600   -3.51117400    2.74490000
| 22> N                   1.72557100    0.01622900   -1.28168100
| 23> N                  -1.71173700   -0.29091200    1.19620800
| 24> N                   1.10410800    1.94004500    2.32414600
| 25> N                  -1.31047900    2.18672200   -2.06454100
| 26> C                   2.70862300    0.98967900   -1.36212600
| 27> C                   2.45549800    2.29931100   -0.89872300
| 28> H                   1.47400300    2.54681700   -0.49925200
| 29> C                   3.41629400    3.28795600   -1.00038700
| 30> H                   3.18715600    4.29797600   -0.65263500
| 31> C                   4.66896800    3.00232700   -1.56264100
| 32> H                   5.42979900    3.78153300   -1.63858900
| 33> C                   4.92922200    1.73153700   -2.04018600
| 34> H                   5.89741400    1.52457200   -2.49759500
| 35> C                   3.96702900    0.70353700   -1.96344800
| 36> C                   4.21005500   -0.63299300   -2.45624200
| 37> C                   5.47557700   -1.05516600   -2.91214000
| 38> H                   6.31359400   -0.35772200   -2.90760000
| 39> C                   5.68136100   -2.35131200   -3.34689200
| 40> H                   6.67231800   -2.65774300   -3.68867700
| 41> C                   4.62842200   -3.27799200   -3.32430100
| 42> H                   4.79804000   -4.31179000   -3.63099800
| 43> C                   3.37599700   -2.88730700   -2.89133300
| 44> H                   2.59299000   -3.64151600   -2.82728200
| 45> C                   3.13189300   -1.56159300   -2.46683200
| 46> C                   1.84885200   -1.14915600   -1.94673300
| 47> C                  -0.50526500   -1.39561600   -1.38836400
| 48> C                  -1.69414800   -2.10422700   -1.74543500
| 49> C                  -3.02900700   -1.88869200   -1.33836400
| 50> H                  -3.26486000   -1.06285600   -0.66475100
| 51> C                  -4.04223700   -2.70288100   -1.81769100
| 52> H                  -5.07237900   -2.53225300   -1.49542200
| 53> C                  -3.75980600   -3.74170300   -2.72344700
| 54> H                  -4.57022900   -4.37609200   -3.08974600
| 55> C                  -2.46424700   -3.96393700   -3.17430500
| 56> H                  -2.25171200   -4.75747100   -3.89393500
| 57> C                  -1.44242300   -3.14257700   -2.68770300
| 58> C                   0.60774500   -1.87701300   -2.05710900
| 59> C                  -2.78786800    0.56179100    1.38709600
| 60> C                  -2.66534400    1.94031300    1.10721800
| 61> H                  -1.71121300    2.33649600    0.76543400
| 62> C                  -3.72149800    2.80637600    1.32010000
| 63> H                  -3.59320300    3.87130800    1.11227800
| 64> C                  -4.94126900    2.32613600    1.81890800
| 65> H                  -5.77661300    3.00930400    1.98420300
| 66> C                  -5.07352100    0.98414700    2.12323500
| 67> H                  -6.01563000    0.62336300    2.53799700
| 68> C                  -4.01282200    0.07596100    1.92715800
| 69> C                  -4.12078500   -1.33117500    2.23840500
| 70> C                  -5.34071400   -1.93943100    2.59757500
| 71> H                  -6.24949700   -1.33973800    2.65433900
| 72> C                  -5.41144200   -3.29581400    2.85708100
| 73> H                  -6.36920500   -3.74693000    3.12531100
| 74> C                  -4.26397100   -4.09597100    2.75068500
| 75> H                  -4.32609600   -5.17277300    2.91872900
| 76> C                  -3.05392000   -3.52345700    2.40899200
| 77> H                  -2.19168100   -4.17547800    2.27372400
| 78> C                  -2.94986100   -2.13583100    2.16192200
| 79> C                  -1.71531600   -1.53189400    1.71985700
| 80> C                   0.64770800   -1.48320300    1.14983400
| 81> C                   1.90643700   -2.08463200    1.45983300
| 82> C                   3.20959200   -1.69176500    1.08463800
| 83> H                   3.35197100   -0.80109900    0.47019800
| 84> C                   4.30687300   -2.41504500    1.52295300
| 85> H                   5.31256900   -2.10608500    1.22776500
| 86> C                   4.14057700   -3.53682200    2.35558600
| 87> H                   5.01666400   -4.09570300    2.69251900
| 88> C                   2.87626600   -3.93814300    2.76995100
| 89> H                   2.75218700   -4.79740400    3.43233800
| 90> C                   1.76954900   -3.20950400    2.32326900
| 91> C                  -0.40582400   -2.13621100    1.76495400
| 92> C                   0.70006100    1.32809300    1.40618500
| 93> C                   1.59522800    2.65929000    3.38664600
| 94> C                   2.26678000    1.95956500    4.41199400
| 95> C                   2.75906300    2.71587100    5.47827200
| 96> H                   3.28426600    2.20481900    6.28881500
| 97> C                   2.58759600    4.09912400    5.51546200
| 98> H                   2.98321300    4.67030900    6.35844800
| 99> C                   1.91437600    4.76050700    4.48911300
|100> H                   1.78070300    5.84434300    4.52807600
|101> C                   1.39759200    4.05636600    3.39895100
|102> C                   2.43007200    0.47926300    4.33414100
|103> H                   2.93723400    0.08524800    5.22257000
|104> H                   3.01817300    0.18594400    3.45014700
|105> H                   1.45810300   -0.03110700    4.24104300
|106> C                   0.64821400    4.72416700    2.29583500
|107> H                   0.66955900    5.81527400    2.39993800
|108> H                  -0.40766200    4.40967200    2.28602500
|109> H                   1.05696400    4.46640200    1.30711100
|110> C                  -0.83034600    1.45365400   -1.28196900
|111> C                  -1.88243700    3.09140800   -2.92555600
|112> C                  -1.71330500    4.46617900   -2.65426700
|113> C                  -2.30873000    5.36558300   -3.54172100
|114> H                  -2.19753400    6.43737700   -3.36016400
|115> C                  -3.03168400    4.91175700   -4.64437700
|116> H                  -3.48738800    5.63354500   -5.32615800
|117> C                  -3.17822800    3.54642600   -4.88636800
|118> H                  -3.74606800    3.19931600   -5.75304100
|119> C                  -2.60733900    2.60029200   -4.03165200
|120> C                  -0.91614800    4.91062800   -1.47455500
|121> H                  -1.27382000    4.44708600   -0.54231200
|122> H                  -0.95545000    5.99915700   -1.35106100
|123> H                   0.14213600    4.62239500   -1.57784100
|124> C                  -2.74805200    1.13215900   -4.25040900
|125> H                  -3.30132500    0.91627400   -5.17161300
|126> H                  -3.28105200    0.65139400   -3.41508000
|127> H                  -1.76752800    0.63462700   -4.31651100
|128> *
|129>
|130>                          ****END OF INPUT****

CARTESIAN COORDINATES (ANGSTROEM)
---------------------------------
  Ir    -0.004541    0.093416   -0.032806
  S      0.234362   -3.222478   -3.138215
  S      0.110306   -3.511174    2.744900
  N      1.725571    0.016229   -1.281681
  N     -1.711737   -0.290912    1.196208
  N      1.104108    1.940045    2.324146
  N     -1.310479    2.186722   -2.064541
  C      2.708623    0.989679   -1.362126
  C      2.455498    2.299311   -0.898723
  H      1.474003    2.546817   -0.499252
  C      3.416294    3.287956   -1.000387
  H      3.187156    4.297976   -0.652635
  C      4.668968    3.002327   -1.562641
  H      5.429799    3.781533   -1.638589
  C      4.929222    1.731537   -2.040186
  H      5.897414    1.524572   -2.497595
  C      3.967029    0.703537   -1.963448
  C      4.210055   -0.632993   -2.456242
  C      5.475577   -1.055166   -2.912140
  H      6.313594   -0.357722   -2.907600
  C      5.681361   -2.351312   -3.346892
  H      6.672318   -2.657743   -3.688677
  C      4.628422   -3.277992   -3.324301
  H      4.798040   -4.311790   -3.630998
  C      3.375997   -2.887307   -2.891333
  H      2.592990   -3.641516   -2.827282
  C      3.131893   -1.561593   -2.466832
  C      1.848852   -1.149156   -1.946733
  C     -0.505265   -1.395616   -1.388364
  C     -1.694148   -2.104227   -1.745435
  C     -3.029007   -1.888692   -1.338364
  H     -3.264860   -1.062856   -0.664751
  C     -4.042237   -2.702881   -1.817691
  H     -5.072379   -2.532253   -1.495422
  C     -3.759806   -3.741703   -2.723447
  H     -4.570229   -4.376092   -3.089746
  C     -2.464247   -3.963937   -3.174305
  H     -2.251712   -4.757471   -3.893935
  C     -1.442423   -3.142577   -2.687703
  C      0.607745   -1.877013   -2.057109
  C     -2.787868    0.561791    1.387096
  C     -2.665344    1.940313    1.107218
  H     -1.711213    2.336496    0.765434
  C     -3.721498    2.806376    1.320100
  H     -3.593203    3.871308    1.112278
  C     -4.941269    2.326136    1.818908
  H     -5.776613    3.009304    1.984203
  C     -5.073521    0.984147    2.123235
  H     -6.015630    0.623363    2.537997
  C     -4.012822    0.075961    1.927158
  C     -4.120785   -1.331175    2.238405
  C     -5.340714   -1.939431    2.597575
  H     -6.249497   -1.339738    2.654339
  C     -5.411442   -3.295814    2.857081
  H     -6.369205   -3.746930    3.125311
  C     -4.263971   -4.095971    2.750685
  H     -4.326096   -5.172773    2.918729
  C     -3.053920   -3.523457    2.408992
  H     -2.191681   -4.175478    2.273724
  C     -2.949861   -2.135831    2.161922
  C     -1.715316   -1.531894    1.719857
  C      0.647708   -1.483203    1.149834
  C      1.906437   -2.084632    1.459833
  C      3.209592   -1.691765    1.084638
  H      3.351971   -0.801099    0.470198
  C      4.306873   -2.415045    1.522953
  H      5.312569   -2.106085    1.227765
  C      4.140577   -3.536822    2.355586
  H      5.016664   -4.095703    2.692519
  C      2.876266   -3.938143    2.769951
  H      2.752187   -4.797404    3.432338
  C      1.769549   -3.209504    2.323269
  C     -0.405824   -2.136211    1.764954
  C      0.700061    1.328093    1.406185
  C      1.595228    2.659290    3.386646
  C      2.266780    1.959565    4.411994
  C      2.759063    2.715871    5.478272
  H      3.284266    2.204819    6.288815
  C      2.587596    4.099124    5.515462
  H      2.983213    4.670309    6.358448
  C      1.914376    4.760507    4.489113
  H      1.780703    5.844343    4.528076
  C      1.397592    4.056366    3.398951
  C      2.430072    0.479263    4.334141
  H      2.937234    0.085248    5.222570
  H      3.018173    0.185944    3.450147
  H      1.458103   -0.031107    4.241043
  C      0.648214    4.724167    2.295835
  H      0.669559    5.815274    2.399938
  H     -0.407662    4.409672    2.286025
  H      1.056964    4.466402    1.307111
  C     -0.830346    1.453654   -1.281969
  C     -1.882437    3.091408   -2.925556
  C     -1.713305    4.466179   -2.654267
  C     -2.308730    5.365583   -3.541721
  H     -2.197534    6.437377   -3.360164
  C     -3.031684    4.911757   -4.644377
  H     -3.487388    5.633545   -5.326158
  C     -3.178228    3.546426   -4.886368
  H     -3.746068    3.199316   -5.753041
  C     -2.607339    2.600292   -4.031652
  C     -0.916148    4.910628   -1.474555
  H     -1.273820    4.447086   -0.542312
  H     -0.955450    5.999157   -1.351061
  H      0.142136    4.622395   -1.577841
  C     -2.748052    1.132159   -4.250409
  H     -3.301325    0.916274   -5.171613
  H     -3.281052    0.651394   -3.415080
  H     -1.767528    0.634627   -4.316511

 Total Charge           Charge          ....    1
 Multiplicity           Mult            ....    1
 Number of Electrons    NEL             ....  478
 Basis Dimension        Dim             .... 1174

ORBITAL ENERGIES
----------------

  NO   OCC          E(Eh)            E(eV)
   0   2.0000     -90.161906     -2453.4302
   1   2.0000     -90.161847     -2453.4286
   2   2.0000     -14.919835      -405.9894
   3   2.0000     -14.919743      -405.9868
   4   2.0000     -14.904256      -405.5654
   5   2.0000     -14.904136      -405.5622
   6   2.0000     -10.723683      -291.8063
   7   2.0000     -10.723529      -291.8021
   8   2.0000     -10.720010      -291.7063
   9   2.0000     -10.719874      -291.7026
  10   2.0000     -10.691546      -290.9318
  11   2.0000     -10.691439      -290.9289
  12   2.0000     -10.688559      -290.8505
  13   2.0000     -10.688276      -290.8428
  14   2.0000     -10.666586      -290.2526
  15   2.0000     -10.666518      -290.2507
  16   2.0000     -10.663918      -290.1800
  17   2.0000     -10.663777      -290.1761
  18   2.0000     -10.660617      -290.0901
  19   2.0000     -10.660525      -290.0876
  20   2.0000     -10.658161      -290.0233
  21   2.0000     -10.657919      -290.0167
  22   2.0000     -10.654156      -289.9143
  23   2.0000     -10.654107      -289.9130
  24   2.0000     -10.653872      -289.9066
  25   2.0000     -10.653826      -289.9054
  26   2.0000     -10.653730      -289.9027
  27   2.0000     -10.653575      -289.8985
  28   2.0000     -10.648570      -289.7623
  29   2.0000     -10.648465      -289.7595
  30   2.0000     -10.645850      -289.6883
  31   2.0000     -10.645660      -289.6831
  32   2.0000     -10.641685      -289.5750
  33   2.0000     -10.641388      -289.5669
  34   2.0000     -10.641053      -289.5578
  35   2.0000     -10.640842      -289.5520
  36   2.0000     -10.640302      -289.5373
  37   2.0000     -10.640292      -289.5371
  38   2.0000     -10.640217      -289.5350
  39   2.0000     -10.640108      -289.5321
  40   2.0000     -10.640041      -289.5302
  41   2.0000     -10.640037      -289.5301
  42   2.0000     -10.639985      -289.5287
  43   2.0000     -10.639861      -289.5253
  44   2.0000     -10.638871      -289.4984
  45   2.0000     -10.638839      -289.4975
  46   2.0000     -10.638381      -289.4851
  47   2.0000     -10.638182      -289.4796
  48   2.0000     -10.638093      -289.4772
  49   2.0000     -10.638076      -289.4768
  50   2.0000     -10.638033      -289.4756
  51   2.0000     -10.637623      -289.4644
  52   2.0000     -10.637612      -289.4642
  53   2.0000     -10.637320      -289.4562
  54   2.0000     -10.635568      -289.4085
  55   2.0000     -10.635445      -289.4052
  56   2.0000     -10.633086      -289.3410
  57   2.0000     -10.633077      -289.3407
  58   2.0000     -10.632967      -289.3377
  59   2.0000     -10.632934      -289.3368
  60   2.0000     -10.631794      -289.3058
  61   2.0000     -10.631703      -289.3034
  62   2.0000     -10.624163      -289.0982
  63   2.0000     -10.624044      -289.0949
  64   2.0000     -10.623294      -289.0745
  65   2.0000     -10.622861      -289.0627
  66   2.0000      -8.390715      -228.3230
  67   2.0000      -8.390613      -228.3202
  68   2.0000      -6.242421      -169.8649
  69   2.0000      -6.242324      -169.8623
  70   2.0000      -6.239630      -169.7890
  71   2.0000      -6.239551      -169.7868
  72   2.0000      -6.236392      -169.7008
  73   2.0000      -6.236272      -169.6976
  74   2.0000      -3.967324      -107.9564
  75   2.0000      -2.241631       -60.9979
  76   2.0000      -2.235749       -60.8378
  77   2.0000      -2.233501       -60.7767
  78   2.0000      -1.118894       -30.4467
  79   2.0000      -1.118358       -30.4321
  80   2.0000      -1.106808       -30.1178
  81   2.0000      -1.103571       -30.0297
  82   2.0000      -1.016893       -27.6711
  83   2.0000      -1.015634       -27.6368
  84   2.0000      -0.996146       -27.1065
  85   2.0000      -0.995363       -27.0852
  86   2.0000      -0.992055       -26.9952
  87   2.0000      -0.991901       -26.9910
  88   2.0000      -0.982235       -26.7280
  89   2.0000      -0.981836       -26.7171
  90   2.0000      -0.947092       -25.7717
  91   2.0000      -0.945870       -25.7384
  92   2.0000      -0.905472       -24.6392
  93   2.0000      -0.904997       -24.6262
  94   2.0000      -0.904930       -24.6244
  95   2.0000      -0.904737       -24.6191
  96   2.0000      -0.897316       -24.4172
  97   2.0000      -0.897191       -24.4138
  98   2.0000      -0.894930       -24.3523
  99   2.0000      -0.894623       -24.3439
 100   2.0000      -0.882200       -24.0059
 101   2.0000      -0.880109       -23.9490
 102   2.0000      -0.866681       -23.5836
 103   2.0000      -0.866308       -23.5734
 104   2.0000      -0.843352       -22.9488
 105   2.0000      -0.843084       -22.9415
 106   2.0000      -0.830000       -22.5854
 107   2.0000      -0.829718       -22.5778
 108   2.0000      -0.822909       -22.3925
 109   2.0000      -0.821841       -22.3634
 110   2.0000      -0.813290       -22.1307
 111   2.0000      -0.809312       -22.0225
 112   2.0000      -0.783669       -21.3247
 113   2.0000      -0.782952       -21.3052
 114   2.0000      -0.765446       -20.8288
 115   2.0000      -0.763284       -20.7700
 116   2.0000      -0.747139       -20.3307
 117   2.0000      -0.746012       -20.3000
 118   2.0000      -0.741719       -20.1832
 119   2.0000      -0.741457       -20.1761
 120   2.0000      -0.734664       -19.9912
 121   2.0000      -0.734029       -19.9739
 122   2.0000      -0.696208       -18.9448
 123   2.0000      -0.695964       -18.9381
 124   2.0000      -0.684212       -18.6183
 125   2.0000      -0.682016       -18.5586
 126   2.0000      -0.677054       -18.4236
 127   2.0000      -0.676280       -18.4025
 128   2.0000      -0.675265       -18.3749
 129   2.0000      -0.675212       -18.3734
 130   2.0000      -0.656437       -17.8626
 131   2.0000      -0.652534       -17.7563
 132   2.0000      -0.643764       -17.5177
 133   2.0000      -0.642099       -17.4724
 134   2.0000      -0.637432       -17.3454
 135   2.0000      -0.636768       -17.3273
 136   2.0000      -0.622598       -16.9417
 137   2.0000      -0.619913       -16.8687
 138   2.0000      -0.602022       -16.3819
 139   2.0000      -0.586645       -15.9634
 140   2.0000      -0.585773       -15.9397
 141   2.0000      -0.579229       -15.7616
 142   2.0000      -0.576401       -15.6847
 143   2.0000      -0.574559       -15.6346
 144   2.0000      -0.573067       -15.5939
 145   2.0000      -0.567450       -15.4411
 146   2.0000      -0.566997       -15.4288
 147   2.0000      -0.565385       -15.3849
 148   2.0000      -0.554289       -15.0830
 149   2.0000      -0.553992       -15.0749
 150   2.0000      -0.547127       -14.8881
 151   2.0000      -0.545450       -14.8424
 152   2.0000      -0.542220       -14.7546
 153   2.0000      -0.541595       -14.7375
 154   2.0000      -0.538852       -14.6629
 155   2.0000      -0.537500       -14.6261
 156   2.0000      -0.536491       -14.5987
 157   2.0000      -0.532754       -14.4970
 158   2.0000      -0.526056       -14.3147
 159   2.0000      -0.524682       -14.2773
 160   2.0000      -0.523340       -14.2408
 161   2.0000      -0.520725       -14.1697
 162   2.0000      -0.514590       -14.0027
 163   2.0000      -0.513294       -13.9674
 164   2.0000      -0.507370       -13.8062
 165   2.0000      -0.506532       -13.7834
 166   2.0000      -0.506489       -13.7823
 167   2.0000      -0.501666       -13.6510
 168   2.0000      -0.501271       -13.6403
 169   2.0000      -0.499028       -13.5792
 170   2.0000      -0.498322       -13.5600
 171   2.0000      -0.493493       -13.4286
 172   2.0000      -0.492732       -13.4079
 173   2.0000      -0.484548       -13.1852
 174   2.0000      -0.483277       -13.1506
 175   2.0000      -0.482984       -13.1427
 176   2.0000      -0.480659       -13.0794
 177   2.0000      -0.478678       -13.0255
 178   2.0000      -0.477641       -12.9973
 179   2.0000      -0.476484       -12.9658
 180   2.0000      -0.471294       -12.8246
 181   2.0000      -0.470925       -12.8145
 182   2.0000      -0.469768       -12.7830
 183   2.0000      -0.467972       -12.7342
 184   2.0000      -0.467790       -12.7292
 185   2.0000      -0.464502       -12.6397
 186   2.0000      -0.461032       -12.5453
 187   2.0000      -0.457283       -12.4433
 188   2.0000      -0.454389       -12.3646
 189   2.0000      -0.451917       -12.2973
 190   2.0000      -0.445990       -12.1360
 191   2.0000      -0.443300       -12.0628
 192   2.0000      -0.442343       -12.0368
 193   2.0000      -0.441503       -12.0139
 194   2.0000      -0.440818       -11.9953
 195   2.0000      -0.438954       -11.9446
 196   2.0000      -0.437213       -11.8972
 197   2.0000      -0.434743       -11.8300
 198   2.0000      -0.431614       -11.7448
 199   2.0000      -0.431033       -11.7290
 200   2.0000      -0.427214       -11.6251
 201   2.0000      -0.426323       -11.6008
 202   2.0000      -0.421207       -11.4616
 203   2.0000      -0.419431       -11.4133
 204   2.0000      -0.416024       -11.3206
 205   2.0000      -0.415007       -11.2929
 206   2.0000      -0.414459       -11.2780
 207   2.0000      -0.409654       -11.1472
 208   2.0000      -0.408696       -11.1212
 209   2.0000      -0.407204       -11.0806
 210   2.0000      -0.406092       -11.0503
 211   2.0000      -0.393841       -10.7170
 212   2.0000      -0.393270       -10.7014
 213   2.0000      -0.391437       -10.6516
 214   2.0000      -0.388763       -10.5788
 215   2.0000      -0.379179       -10.3180
 216   2.0000      -0.369837       -10.0638
 217   2.0000      -0.360002        -9.7962
 218   2.0000      -0.355101        -9.6628
 219   2.0000      -0.352572        -9.5940
 220   2.0000      -0.343873        -9.3573
 221   2.0000      -0.343072        -9.3355
 222   2.0000      -0.339381        -9.2350
 223   2.0000      -0.330607        -8.9963
 224   2.0000      -0.326543        -8.8857
 225   2.0000      -0.325943        -8.8694
 226   2.0000      -0.315559        -8.5868
 227   2.0000      -0.292901        -7.9702
 228   2.0000      -0.292275        -7.9532
 229   2.0000      -0.290267        -7.8986
 230   2.0000      -0.289719        -7.8837
 231   2.0000      -0.287148        -7.8137
 232   2.0000      -0.286107        -7.7854
 233   2.0000      -0.278191        -7.5700
 234   2.0000      -0.274208        -7.4616
 235   2.0000      -0.270165        -7.3516
 236   2.0000      -0.267899        -7.2899
 237   2.0000      -0.245854        -6.6900
 238   2.0000      -0.237626        -6.4661
 239   0.0000      -0.052459        -1.4275
 240   0.0000      -0.047368        -1.2889
 241   0.0000      -0.006672        -0.1816
 242   0.0000      -0.005737        -0.1561
 243   0.0000      -0.003103        -0.0844

MULLIKEN ATOMIC CHARGES
-----------------------
   0 Ir:    0.373730
   1 S :    0.106883
   2 S :    0.108013
   3 N :   -0.433731
   4 N :   -0.431476
   5 N :   -0.074502
   6 N :   -0.071062
   7 C :    0.182576
   8 C :   -0.093796
   9 H :    0.059372
  10 C :   -0.002657
  11 H :    0.045627
  12 C :   -0.006057
  13 H :    0.037252
  14 C :   -0.059282
  15 H :    0.035788
  16 C :    0.005922
  17 C :    0.090613
  18 C :   -0.067405
  19 H :    0.039414
  20 C :    0.021927
  21 H :    0.046980
  22 C :   -0.014986
  23 H :    0.044577
  24 C :   -0.036640
  25 H :    0.035186
  26 C :   -0.051774
  27 C :    0.279838
  28 C :   -0.002855
  29 C :   -0.024404
  30 C :   -0.028309
  31 H :    0.039704
  32 C :   -0.031263
  33 H :    0.032843
  34 C :   -0.011789
  35 H :    0.042398
  36 C :   -0.040989
  37 H :    0.033115
  38 C :   -0.068858
  39 C :   -0.186150
  40 C :    0.184851
  41 C :   -0.094050
  42 H :    0.056854
  43 C :   -0.002685
  44 H :    0.045205
  45 C :   -0.006834
  46 H :    0.037696
  47 C :   -0.059726
  48 H :    0.036510
  49 C :    0.005506
  50 C :    0.087154
  51 C :   -0.065777
  52 H :    0.039179
  53 C :    0.022509
  54 H :    0.047027
  55 C :   -0.014468
  56 H :    0.044654
  57 C :   -0.037855
  58 H :    0.035878
  59 C :   -0.047332
  60 C :    0.275473
  61 C :   -0.000582
  62 C :   -0.020638
  63 C :   -0.027938
  64 H :    0.039852
  65 C :   -0.029385
  66 H :    0.032428
  67 C :   -0.012663
  68 H :    0.042265
  69 C :   -0.040241
  70 H :    0.032910
  71 C :   -0.072835
  72 C :   -0.180559
  73 C :    0.031244
  74 C :    0.107996
  75 C :   -0.119253
  76 C :   -0.078870
  77 H :    0.030596
  78 C :    0.022719
  79 H :    0.040809
  80 C :   -0.077460
  81 H :    0.029964
  82 C :   -0.118336
  83 C :    0.101096
  84 H :    0.033995
  85 H :    0.058406
  86 H :    0.056927
  87 C :    0.093921
  88 H :    0.035085
  89 H :    0.057456
  90 H :    0.058556
  91 C :    0.025972
  92 C :    0.105517
  93 C :   -0.116262
  94 C :   -0.078508
  95 H :    0.029685
  96 C :    0.023780
  97 H :    0.040603
  98 C :   -0.077648
  99 H :    0.030354
 100 C :   -0.118075
 101 C :    0.092655
 102 H :    0.060010
 103 H :    0.034979
 104 H :    0.057684
 105 C :    0.101974
 106 H :    0.034694
 107 H :    0.055824
 108 H :    0.055754
Sum of atomic charges:    1.0000000

LOEWDIN ATOMIC CHARGES
----------------------
   0 Ir:   -0.284118
   1 S :    0.379045
   2 S :    0.378827
   3 N :   -0.012158
   4 N :   -0.013011
   5 N :    0.078929
   6 N :    0.078923
   7 C :    0.041052
   8 C :   -0.029110
   9 H :    0.046956
  10 C :   -0.011512
  11 H :    0.043293
  12 C :   -0.029572
  13 H :    0.042272
  14 C :   -0.007689
  15 H :    0.044099
  16 C :   -0.036295
  17 C :    0.013570
  18 C :   -0.017596
  19 H :    0.045046
  20 C :    0.006950
  21 H :    0.047021
  22 C :   -0.021587
  23 H :    0.045572
  24 C :   -0.007010
  25 H :    0.023999
  26 C :   -0.048622
  27 C :    0.114262
  28 C :   -0.060332
  29 C :   -0.066892
  30 C :   -0.005285
  31 H :    0.041862
  32 C :   -0.043425
  33 H :    0.039784
  34 C :   -0.016879
  35 H :    0.042162
  36 C :   -0.048120
  37 H :    0.043230
  38 C :   -0.148821
  39 C :   -0.214092
  40 C :    0.040827
  41 C :   -0.029558
  42 H :    0.046639
  43 C :   -0.011583
  44 H :    0.043645
  45 C :   -0.029627
  46 H :    0.042399
  47 C :   -0.007811
  48 H :    0.044302
  49 C :   -0.036667
  50 C :    0.013454
  51 C :   -0.017427
  52 H :    0.045110
  53 C :    0.007017
  54 H :    0.047048
  55 C :   -0.021757
  56 H :    0.045636
  57 C :   -0.006134
  58 H :    0.025531
  59 C :   -0.049072
  60 C :    0.114881
  61 C :   -0.059807
  62 C :   -0.065431
  63 C :   -0.004757
  64 H :    0.042017
  65 C :   -0.043169
  66 H :    0.039765
  67 C :   -0.017148
  68 H :    0.042066
  69 C :   -0.048369
  70 H :    0.043105
  71 C :   -0.148862
  72 C :   -0.213500
  73 C :    0.147415
  74 C :   -0.014028
  75 C :   -0.007752
  76 C :   -0.038507
  77 H :    0.041043
  78 C :   -0.007455
  79 H :    0.043615
  80 C :   -0.038480
  81 H :    0.040878
  82 C :   -0.008293
  83 C :   -0.038175
  84 H :    0.037614
  85 H :    0.041618
  86 H :    0.041550
  87 C :   -0.038417
  88 H :    0.038161
  89 H :    0.043574
  90 H :    0.041368
  91 C :    0.146455
  92 C :   -0.013946
  93 C :   -0.007394
  94 C :   -0.038366
  95 H :    0.040847
  96 C :   -0.007413
  97 H :    0.043548
  98 C :   -0.038302
  99 H :    0.040981
 100 C :   -0.008274
 101 C :   -0.038673
 102 H :    0.042139
 103 H :    0.038233
 104 H :    0.043634
 105 C :   -0.037682
 106 H :    0.037683
 107 H :    0.041685
 108 H :    0.041625

  Mayer bond orders larger than 0.100000
B(  0-Ir,  3-N ) :   0.4761 B(  0-Ir,  4-N ) :   0.4743 B(  0-Ir, 28-C ) :   0.6675
B(  0-Ir, 61-C ) :   0.6691 B(  0-Ir, 73-C ) :   0.6565 B(  0-Ir, 91-C ) :   0.6557
B(  1-S , 38-C ) :   1.0635 B(  1-S , 39-C ) :   1.0183 B(  2-S , 71-C ) :   1.0637
B(  2-S , 72-C ) :   1.0183 B(  3-N ,  7-C ) :   1.1032 B(  3-N , 27-C ) :   1.4004
B(  4-N , 40-C ) :   1.1022 B(  4-N , 60-C ) :   1.4047 B(  5-N , 73-C ) :   2.5243
B(  5-N , 74-C ) :   0.8997 B(  6-N , 91-C ) :   2.5226 B(  6-N , 92-C ) :   0.9010
B(  7-C ,  8-C ) :   1.3078 B(  7-C , 16-C ) :   1.3252 B(  8-C ,  9-H ) :   0.9846
B(  8-C , 10-C ) :   1.4555 B( 10-C , 11-H ) :   0.9951 B( 10-C , 12-C ) :   1.2902
B( 12-C , 13-H ) :   0.9962 B( 12-C , 14-C ) :   1.4506 B( 14-C , 15-H ) :   0.9975
B( 14-C , 16-C ) :   1.3196 B( 16-C , 17-C ) :   1.1077 B( 17-C , 18-C ) :   1.3214
B( 17-C , 26-C ) :   1.3040 B( 18-C , 19-H ) :   0.9975 B( 18-C , 20-C ) :   1.4550
B( 20-C , 21-H ) :   0.9936 B( 20-C , 22-C ) :   1.2946 B( 22-C , 23-H ) :   0.9938
B( 22-C , 24-C ) :   1.4865 B( 24-C , 25-H ) :   0.9765 B( 24-C , 26-C ) :   1.2845
B( 26-C , 27-C ) :   1.1469 B( 27-C , 39-C ) :   1.1589 B( 28-C , 29-C ) :   1.2318
B( 28-C , 39-C ) :   1.5536 B( 28-C , 73-C ) :   0.1128 B( 29-C , 30-C ) :   1.3014
B( 29-C , 38-C ) :   1.3042 B( 30-C , 31-H ) :   0.9930 B( 30-C , 32-C ) :   1.4475
B( 32-C , 33-H ) :   0.9964 B( 32-C , 34-C ) :   1.3080 B( 34-C , 35-H ) :   0.9943
B( 34-C , 36-C ) :   1.4415 B( 36-C , 37-H ) :   1.0018 B( 36-C , 38-C ) :   1.3427
B( 40-C , 41-C ) :   1.3083 B( 40-C , 49-C ) :   1.3246 B( 41-C , 42-H ) :   0.9863
B( 41-C , 43-C ) :   1.4564 B( 43-C , 44-H ) :   0.9955 B( 43-C , 45-C ) :   1.2900
B( 45-C , 46-H ) :   0.9963 B( 45-C , 47-C ) :   1.4505 B( 47-C , 48-H ) :   0.9978
B( 47-C , 49-C ) :   1.3196 B( 49-C , 50-C ) :   1.1076 B( 50-C , 51-C ) :   1.3227
B( 50-C , 59-C ) :   1.3024 B( 51-C , 52-H ) :   0.9973 B( 51-C , 53-C ) :   1.4543
B( 53-C , 54-H ) :   0.9935 B( 53-C , 55-C ) :   1.2932 B( 55-C , 56-H ) :   0.9941
B( 55-C , 57-C ) :   1.4864 B( 57-C , 58-H ) :   0.9776 B( 57-C , 59-C ) :   1.2850
B( 59-C , 60-C ) :   1.1473 B( 60-C , 72-C ) :   1.1530 B( 61-C , 62-C ) :   1.2303
B( 61-C , 72-C ) :   1.5534 B( 61-C , 91-C ) :   0.1147 B( 62-C , 63-C ) :   1.3032
B( 62-C , 71-C ) :   1.3027 B( 63-C , 64-H ) :   0.9929 B( 63-C , 65-C ) :   1.4461
B( 65-C , 66-H ) :   0.9967 B( 65-C , 67-C ) :   1.3078 B( 67-C , 68-H ) :   0.9942
B( 67-C , 69-C ) :   1.4418 B( 69-C , 70-H ) :   1.0014 B( 69-C , 71-C ) :   1.3435
B( 74-C , 75-C ) :   1.3653 B( 74-C , 82-C ) :   1.3686 B( 75-C , 76-C ) :   1.4134
B( 75-C , 83-C ) :   1.0649 B( 76-C , 77-H ) :   1.0014 B( 76-C , 78-C ) :   1.3660
B( 78-C , 79-H ) :   0.9993 B( 78-C , 80-C ) :   1.3647 B( 80-C , 81-H ) :   1.0021
B( 80-C , 82-C ) :   1.4129 B( 82-C , 87-C ) :   1.0616 B( 83-C , 84-H ) :   0.9505
B( 83-C , 85-H ) :   0.9531 B( 83-C , 86-H ) :   0.9530 B( 87-C , 88-H ) :   0.9504
B( 87-C , 89-H ) :   0.9519 B( 87-C , 90-H ) :   0.9562 B( 92-C , 93-C ) :   1.3672
B( 92-C ,100-C ) :   1.3670 B( 93-C , 94-C ) :   1.4137 B( 93-C ,101-C ) :   1.0613
B( 94-C , 95-H ) :   1.0023 B( 94-C , 96-C ) :   1.3648 B( 96-C , 97-H ) :   0.9995
B( 96-C , 98-C ) :   1.3654 B( 98-C , 99-H ) :   1.0013 B( 98-C ,100-C ) :   1.4127
B(100-C ,105-C ) :   1.0635 B(101-C ,102-H ) :   0.9562 B(101-C ,103-H ) :   0.9496
B(101-C ,104-H ) :   0.9509 B(105-C ,106-H ) :   0.9521 B(105-C ,107-H ) :   0.9535
B(105-C ,108-H ) :   0.9540

MP2 TOTAL ENERGY:    -3426.278460985 Eh

-----------------------------------------------------------------------------
         ABSORPTION SPECTRUM VIA TRANSITION ELECTRIC DIPOLE MOMENTS
-----------------------------------------------------------------------------
State   Energy    Wavelength  fosc         T2        TX        TY        TZ
        (cm-1)      (nm)                 (au**2)    (au)      (au)      (au)
-----------------------------------------------------------------------------
   1   21976.8    455.0   0.112759380   1.68914  -0.05123  -1.29766  -0.05101
   2   22611.2    442.3   0.586365394   8.53728  -2.91373  -0.11902   0.18238
   3   22201.1    450.4   0.006837145   0.10139   0.02134  -0.10331   0.30043
   4   22953.8    435.7   0.023352444   0.33493  -0.01645   0.57375   0.07398
   5   26560.4    376.5   0.082892136   1.02743  -0.27322   0.04763  -0.97494
   6   27099.6    369.0   0.133106926   1.61701  -0.05539   1.26783   0.08094
   7   27870.3    358.8   0.049188918   0.58103  -0.53377  -0.02414   0.54364
   8   28176.0    354.9   0.084465838   0.98691   0.03048  -0.99194  -0.04505
   9   31441.9    318.0   0.249349054   2.61080  -1.59206  -0.09779   0.25805
  10   31633.5    316.1   0.024912550   0.25927  -0.01705   0.50594   0.05476
  11   28848.0    346.6   0.007025851   0.08018   0.08552   0.26898  -0.02273
  12   28998.3    344.8   0.039237634   0.44546  -0.63515   0.00082   0.20505
  13   32019.2    312.3   0.522697962   5.37423   2.08965   0.01328  -1.00370
  14   32170.9    310.8   0.142482547   1.45806  -0.18871  -1.19264   0.00687
  15   34759.8    287.7   0.017199533   0.16290  -0.39851   0.03064  -0.05612
  16   36013.0    277.7   0.003027500   0.02768   0.04935   0.15651  -0.02733
  17   31318.2    319.3   0.041281186   0.43394   0.52944   0.27509   0.27922
  18   31332.9    319.2   0.025733830   0.27038  -0.30574   0.41199  -0.08467
  19   32172.6    310.8   0.024630728   0.25204  -0.08489   0.48956   0.07185
  20   33105.0    302.1   0.082661822   0.82203   0.06633  -0.05396   0.90262
  21   32091.5    311.6   0.014553798   0.14930   0.03961  -0.26069   0.28244
  22   34891.2    286.6   0.005710935   0.05388   0.19067   0.10658   0.07855
  23   34300.8    291.5   0.039262937   0.37684  -0.59969  -0.02759  -0.12824
  24   33985.3    294.2   0.017444485   0.16898   0.38608   0.14001  -0.01807
  25   36494.0    274.0   0.188189897   1.69766   0.83252  -0.59615   0.80571
  26   36297.7    275.5   0.199972557   1.81371  -0.15750  -1.28247  -0.37972
  27   36011.4    277.7   0.006237830   0.05703  -0.05975   0.22172   0.06556
  28   37083.9    269.7   0.100736218   0.89428  -0.64024  -0.16572  -0.67595
  29   37250.8    268.5   0.261841524   2.31408  -0.12765   1.51506   0.04890
  30   36896.2    271.0   0.142294859   1.26965   0.18947   0.18553   1.09514
  31   34667.1    288.5   0.079733468   0.75718  -0.20014  -0.27567   0.80070
  32   36095.9    277.0   0.009072092   0.08274  -0.05647   0.28076  -0.02699
  33   36842.0    271.4   0.316269637   2.82612   0.11288  -1.67512  -0.08568
  34   35716.9    280.0   0.078685490   0.72527   0.15904  -0.16188   0.82083
  35   36655.4    272.8   0.004807679   0.04318  -0.05722   0.15031   0.13157
  36   36407.9    274.7   0.141141993   1.27625  -0.75222  -0.00482  -0.84284
  37   34900.1    286.5   0.027413220   0.25859   0.31207  -0.01553  -0.40120
  38   36236.3    276.0   0.025232058   0.22924  -0.02504  -0.32094  -0.35441
  39   36376.2    274.9   0.023443306   0.21217  -0.06494   0.39896  -0.22087
  40   36651.1    272.8   0.059361953   0.53321  -0.70941  -0.14926   0.08756

FINAL SINGLE POINT ENERGY     -3423.088434731041

DIPOLE MOMENT
-------------
                                X             Y             Z
Electronic contribution:      0.60795     -10.66739      -7.02174
Nuclear contribution   :     -0.75574      13.58611       7.27239
                        -----------------------------------------
Total Dipole Moment    :     -0.14779       2.91872       0.25064
                        -----------------------------------------
Magnitude (a.u.)       :      2.93318
Magnitude (Debye)      :      7.45556

Rotational constants in cm-1:     0.001222     0.001139     0.001103
Rotational constants in MHz :    36.645732    34.144706    33.054055

                             ****ORCA TERMINATED NORMALLY****
TOTAL RUN TIME: 0 days 10 hours 56 minutes 0 seconds 72 msec
