                         Program Version 5.0.4 -  RELEASE  -
|  1> %maxcore 12000
|  2> %pal
|  3>  nprocs 8
|  4> end
|  5> ! RI-B2PLYP def2-SVP def2/J def2-SVP/C RIJCOSX CPCM TIGHTSCF
|  6>
|  7> %TDDFT
|  8>     DCORR      4
|  9>     NROOTS    40
| 10>     TDA       FALSE
| 11> END
| 12>
| 13> %CPCM
| 14>     SMD		TRUE
| 15>     SMDsolvent	"Acetonitrile"
| 16> END
| 17>
| 18> * xyz 2 1
| 19> Fe                 -0.18443400    1.05691900   -0.14483500
| 20> N                  -0.45141900    2.99521900   -0.51342800
| 21> C                   0.48875800    3.80074400    0.05491000
| 22> C                  -1.38066200    3.55541600   -1.29519600
| 23> C                   0.49530100    5.18331200   -0.12762900
| 24> C                  -1.43442300    4.92992000   -1.52113800
| 25> H                  -2.10511800    2.88586000   -1.76305900
| 26> C                  -0.48754000    5.75915300   -0.92641900
| 27> H                   1.27031500    5.78119000    0.35371800
| 28> H                  -2.21816900    5.33257700   -2.16348500
| 29> H                  -0.51008600    6.83790200   -1.08791400
| 30> C                   1.46140400    3.09144700    0.84730000
| 31> H                   2.26188000    3.62966500    1.36849700
| 32> N                   1.33638300    1.80241100    0.91333600
| 33> C                   2.29050700    1.04157900    1.62714400
| 34> C                   3.66315200    1.17422700    1.37216200
| 35> C                   1.84596700    0.10026600    2.55565900
| 36> C                   4.57942500    0.34976700    2.02358400
| 37> H                   4.00823500    1.90821400    0.63949100
| 38> C                   2.78161900   -0.70471400    3.19014400
| 39> H                   0.79323300    0.01225100    2.81133700
| 40> C                   4.14862900   -0.60608500    2.93808700
| 41> H                   5.64353000    0.44781300    1.80260000
| 42> N                  -1.32476600    0.96618500    1.48234400
| 43> C                  -1.56743300   -0.30234200    1.92027300
| 44> C                  -1.88841100    1.98586900    2.13884100
| 45> C                  -2.40609600   -0.57017800    3.00180400
| 46> C                  -2.73129700    1.79150000    3.23227200
| 47> H                  -1.67211800    2.99266600    1.77372800
| 48> C                  -3.00388100    0.49664000    3.66607600
| 49> H                  -2.56573800   -1.60472800    3.30990800
| 50> H                  -3.16668900    2.65900500    3.72905200
| 51> H                  -3.66535200    0.32094800    4.51580900
| 52> C                  -0.83074800   -1.31854000    1.20957900
| 53> H                  -0.94168900   -2.37678500    1.47707100
| 54> N                   0.00242500   -0.90857900    0.30272500
| 55> C                   0.74312000   -1.84156600   -0.45301400
| 56> C                   0.16280000   -3.02118600   -0.94520500
| 57> C                   2.07480200   -1.54682700   -0.75558600
| 58> C                   0.90955800   -3.89002200   -1.73903400
| 59> H                  -0.88144700   -3.24938600   -0.71859400
| 60> C                   2.79383000   -2.43305900   -1.54491200
| 61> H                   2.55060700   -0.64546000   -0.37385200
| 62> C                   2.23523100   -3.60471600   -2.05217800
| 63> H                   0.44563600   -4.79854300   -2.12629700
| 64> N                   0.83205700    0.94835200   -1.87323100
| 65> C                   0.11165600    0.42715100   -2.90407500
| 66> C                   2.09989500    1.30326000   -2.10579400
| 67> C                   0.65934300    0.21892800   -4.16979000
| 68> C                   2.71247000    1.12976100   -3.34628600
| 69> H                   2.66106500    1.72529200   -1.26965400
| 70> C                   1.98705400    0.57062300   -4.39383600
| 71> H                   0.03699600   -0.21223300   -4.95508700
| 72> H                   3.75460800    1.42569400   -3.46974400
| 73> H                   2.44566000    0.41557400   -5.37159700
| 74> C                  -1.25175700    0.10325400   -2.56596800
| 75> H                  -1.91300000   -0.36390500   -3.30588600
| 76> N                  -1.64885600    0.39203400   -1.36688900
| 77> C                  -2.92569200   -0.03281600   -0.93609500
| 78> C                  -3.29648600   -1.36885900   -1.10259900
| 79> C                  -3.78790200    0.85562200   -0.27673900
| 80> C                  -4.52099200   -1.78828600   -0.59274400
| 81> H                  -2.63646600   -2.07682600   -1.60392200
| 82> C                  -5.01494900    0.41039800    0.20515400
| 83> H                  -3.49553800    1.89953200   -0.15310500
| 84> C                  -5.39321500   -0.92306900    0.06080400
| 85> H                  -5.68270600    1.11084100    0.70969600
| 86> N                  -4.88931900   -3.20264000   -0.74284500
| 87> O                  -4.06604900   -3.95513900   -1.24191100
| 88> O                  -5.99573500   -3.54547600   -0.35890600
| 89> N                   4.18572600   -2.09597100   -1.87387400
| 90> O                   4.81965600   -2.89403200   -2.54485300
| 91> O                   4.62763200   -1.03328300   -1.46161300
| 92> N                   2.29398000   -1.70752800    4.14661900
| 93> O                   1.08469700   -1.85819300    4.24595200
| 94> O                   3.12335800   -2.33819500    4.78123300
| 95> H                  -6.34131600   -1.29407200    0.44900700
| 96> H                   2.83073200   -4.26658500   -2.68016200
| 97> H                   4.84804100   -1.26766800    3.44830100
| 98> *
| 99>
|100>                          ****END OF INPUT****

CARTESIAN COORDINATES (ANGSTROEM)
---------------------------------
  Fe    -0.184434    1.056919   -0.144835
  N     -0.451419    2.995219   -0.513428
  C      0.488758    3.800744    0.054910
  C     -1.380662    3.555416   -1.295196
  C      0.495301    5.183312   -0.127629
  C     -1.434423    4.929920   -1.521138
  H     -2.105118    2.885860   -1.763059
  C     -0.487540    5.759153   -0.926419
  H      1.270315    5.781190    0.353718
  H     -2.218169    5.332577   -2.163485
  H     -0.510086    6.837902   -1.087914
  C      1.461404    3.091447    0.847300
  H      2.261880    3.629665    1.368497
  N      1.336383    1.802411    0.913336
  C      2.290507    1.041579    1.627144
  C      3.663152    1.174227    1.372162
  C      1.845967    0.100266    2.555659
  C      4.579425    0.349767    2.023584
  H      4.008235    1.908214    0.639491
  C      2.781619   -0.704714    3.190144
  H      0.793233    0.012251    2.811337
  C      4.148629   -0.606085    2.938087
  H      5.643530    0.447813    1.802600
  N     -1.324766    0.966185    1.482344
  C     -1.567433   -0.302342    1.920273
  C     -1.888411    1.985869    2.138841
  C     -2.406096   -0.570178    3.001804
  C     -2.731297    1.791500    3.232272
  H     -1.672118    2.992666    1.773728
  C     -3.003881    0.496640    3.666076
  H     -2.565738   -1.604728    3.309908
  H     -3.166689    2.659005    3.729052
  H     -3.665352    0.320948    4.515809
  C     -0.830748   -1.318540    1.209579
  H     -0.941689   -2.376785    1.477071
  N      0.002425   -0.908579    0.302725
  C      0.743120   -1.841566   -0.453014
  C      0.162800   -3.021186   -0.945205
  C      2.074802   -1.546827   -0.755586
  C      0.909558   -3.890022   -1.739034
  H     -0.881447   -3.249386   -0.718594
  C      2.793830   -2.433059   -1.544912
  H      2.550607   -0.645460   -0.373852
  C      2.235231   -3.604716   -2.052178
  H      0.445636   -4.798543   -2.126297
  N      0.832057    0.948352   -1.873231
  C      0.111656    0.427151   -2.904075
  C      2.099895    1.303260   -2.105794
  C      0.659343    0.218928   -4.169790
  C      2.712470    1.129761   -3.346286
  H      2.661065    1.725292   -1.269654
  C      1.987054    0.570623   -4.393836
  H      0.036996   -0.212233   -4.955087
  H      3.754608    1.425694   -3.469744
  H      2.445660    0.415574   -5.371597
  C     -1.251757    0.103254   -2.565968
  H     -1.913000   -0.363905   -3.305886
  N     -1.648856    0.392034   -1.366889
  C     -2.925692   -0.032816   -0.936095
  C     -3.296486   -1.368859   -1.102599
  C     -3.787902    0.855622   -0.276739
  C     -4.520992   -1.788286   -0.592744
  H     -2.636466   -2.076826   -1.603922
  C     -5.014949    0.410398    0.205154
  H     -3.495538    1.899532   -0.153105
  C     -5.393215   -0.923069    0.060804
  H     -5.682706    1.110841    0.709696
  N     -4.889319   -3.202640   -0.742845
  O     -4.066049   -3.955139   -1.241911
  O     -5.995735   -3.545476   -0.358906
  N      4.185726   -2.095971   -1.873874
  O      4.819656   -2.894032   -2.544853
  O      4.627632   -1.033283   -1.461613
  N      2.293980   -1.707528    4.146619
  O      1.084697   -1.858193    4.245952
  O      3.123358   -2.338195    4.781233
  H     -6.341316   -1.294072    0.449007
  H      2.830732   -4.266585   -2.680162
  H      4.848041   -1.267668    3.448301

 Total Charge           Charge          ....    2
 Multiplicity           Mult            ....    1
 Number of Electrons    NEL             ....  378
 Basis Dimension        Dim             ....  880

ORBITAL ENERGIES
----------------

  NO   OCC          E(Eh)            E(eV)
   0   2.0000    -258.266992     -7027.8021
   1   2.0000     -30.797592      -838.0451
   2   2.0000     -26.510766      -721.3946
   3   2.0000     -26.510467      -721.3865
   4   2.0000     -26.508340      -721.3286
   5   2.0000     -19.775857      -538.1284
   6   2.0000     -19.775361      -538.1149
   7   2.0000     -19.775156      -538.1094
   8   2.0000     -19.775107      -538.1080
   9   2.0000     -19.774825      -538.1003
  10   2.0000     -19.774621      -538.0948
  11   2.0000     -15.112719      -411.2380
  12   2.0000     -15.112139      -411.2222
  13   2.0000     -15.112091      -411.2209
  14   2.0000     -14.904368      -405.5685
  15   2.0000     -14.904247      -405.5652
  16   2.0000     -14.903412      -405.5425
  17   2.0000     -14.902450      -405.5163
  18   2.0000     -14.902357      -405.5137
  19   2.0000     -14.901811      -405.4989
  20   2.0000     -10.720059      -291.7076
  21   2.0000     -10.719795      -291.7004
  22   2.0000     -10.719198      -291.6842
  23   2.0000     -10.703914      -291.2683
  24   2.0000     -10.703081      -291.2456
  25   2.0000     -10.702605      -291.2327
  26   2.0000     -10.700152      -291.1659
  27   2.0000     -10.699781      -291.1558
  28   2.0000     -10.699289      -291.1424
  29   2.0000     -10.696826      -291.0754
  30   2.0000     -10.696405      -291.0640
  31   2.0000     -10.695916      -291.0507
  32   2.0000     -10.695791      -291.0473
  33   2.0000     -10.695642      -291.0432
  34   2.0000     -10.695469      -291.0385
  35   2.0000     -10.670055      -290.3470
  36   2.0000     -10.669412      -290.3294
  37   2.0000     -10.669171      -290.3229
  38   2.0000     -10.667257      -290.2708
  39   2.0000     -10.666670      -290.2548
  40   2.0000     -10.666377      -290.2469
  41   2.0000     -10.666150      -290.2407
  42   2.0000     -10.665365      -290.2193
  43   2.0000     -10.664484      -290.1953
  44   2.0000     -10.663268      -290.1623
  45   2.0000     -10.662471      -290.1406
  46   2.0000     -10.662351      -290.1373
  47   2.0000     -10.661545      -290.1154
  48   2.0000     -10.661187      -290.1056
  49   2.0000     -10.661030      -290.1014
  50   2.0000     -10.660824      -290.0958
  51   2.0000     -10.660369      -290.0834
  52   2.0000     -10.660117      -290.0765
  53   2.0000     -10.654822      -289.9325
  54   2.0000     -10.654671      -289.9283
  55   2.0000     -10.654115      -289.9132
  56   2.0000      -3.700271      -100.6895
  57   2.0000      -2.395917       -65.1962
  58   2.0000      -2.394395       -65.1548
  59   2.0000      -2.389311       -65.0165
  60   2.0000      -1.392210       -37.8840
  61   2.0000      -1.391678       -37.8695
  62   2.0000      -1.391557       -37.8662
  63   2.0000      -1.202733       -32.7280
  64   2.0000      -1.202105       -32.7109
  65   2.0000      -1.202077       -32.7102
  66   2.0000      -1.134838       -30.8805
  67   2.0000      -1.125046       -30.6141
  68   2.0000      -1.123358       -30.5681
  69   2.0000      -1.092984       -29.7416
  70   2.0000      -1.092325       -29.7237
  71   2.0000      -1.091032       -29.6885
  72   2.0000      -1.013720       -27.5847
  73   2.0000      -1.013181       -27.5700
  74   2.0000      -1.012752       -27.5584
  75   2.0000      -0.945210       -25.7205
  76   2.0000      -0.943944       -25.6860
  77   2.0000      -0.942658       -25.6510
  78   2.0000      -0.935269       -25.4500
  79   2.0000      -0.934300       -25.4236
  80   2.0000      -0.933749       -25.4086
  81   2.0000      -0.913707       -24.8632
  82   2.0000      -0.913530       -24.8584
  83   2.0000      -0.913213       -24.8498
  84   2.0000      -0.879654       -23.9366
  85   2.0000      -0.878801       -23.9134
  86   2.0000      -0.876182       -23.8421
  87   2.0000      -0.815494       -22.1907
  88   2.0000      -0.811783       -22.0898
  89   2.0000      -0.810920       -22.0663
  90   2.0000      -0.797815       -21.7097
  91   2.0000      -0.795732       -21.6530
  92   2.0000      -0.794381       -21.6162
  93   2.0000      -0.757920       -20.6241
  94   2.0000      -0.757465       -20.6117
  95   2.0000      -0.757064       -20.6008
  96   2.0000      -0.734935       -19.9986
  97   2.0000      -0.730470       -19.8771
  98   2.0000      -0.729396       -19.8479
  99   2.0000      -0.713974       -19.4282
 100   2.0000      -0.712481       -19.3876
 101   2.0000      -0.701598       -19.0915
 102   2.0000      -0.682548       -18.5731
 103   2.0000      -0.679519       -18.4907
 104   2.0000      -0.678791       -18.4708
 105   2.0000      -0.660304       -17.9678
 106   2.0000      -0.658886       -17.9292
 107   2.0000      -0.658193       -17.9103
 108   2.0000      -0.647850       -17.6289
 109   2.0000      -0.634308       -17.2604
 110   2.0000      -0.632379       -17.2079
 111   2.0000      -0.631575       -17.1860
 112   2.0000      -0.631478       -17.1834
 113   2.0000      -0.630830       -17.1657
 114   2.0000      -0.618705       -16.8358
 115   2.0000      -0.616057       -16.7638
 116   2.0000      -0.615283       -16.7427
 117   2.0000      -0.604753       -16.4562
 118   2.0000      -0.601028       -16.3548
 119   2.0000      -0.600554       -16.3419
 120   2.0000      -0.594632       -16.1807
 121   2.0000      -0.594062       -16.1652
 122   2.0000      -0.590159       -16.0590
 123   2.0000      -0.580413       -15.7938
 124   2.0000      -0.578475       -15.7411
 125   2.0000      -0.577444       -15.7130
 126   2.0000      -0.570329       -15.5194
 127   2.0000      -0.568814       -15.4782
 128   2.0000      -0.567898       -15.4533
 129   2.0000      -0.564789       -15.3687
 130   2.0000      -0.563495       -15.3335
 131   2.0000      -0.558002       -15.1840
 132   2.0000      -0.543787       -14.7972
 133   2.0000      -0.539504       -14.6807
 134   2.0000      -0.534990       -14.5578
 135   2.0000      -0.534127       -14.5343
 136   2.0000      -0.530926       -14.4472
 137   2.0000      -0.527822       -14.3628
 138   2.0000      -0.525444       -14.2981
 139   2.0000      -0.520899       -14.1744
 140   2.0000      -0.514461       -13.9992
 141   2.0000      -0.509428       -13.8623
 142   2.0000      -0.504492       -13.7279
 143   2.0000      -0.497193       -13.5293
 144   2.0000      -0.482932       -13.1412
 145   2.0000      -0.478954       -13.0330
 146   2.0000      -0.473545       -12.8858
 147   2.0000      -0.468779       -12.7561
 148   2.0000      -0.467170       -12.7123
 149   2.0000      -0.466315       -12.6891
 150   2.0000      -0.463472       -12.6117
 151   2.0000      -0.462675       -12.5900
 152   2.0000      -0.459699       -12.5090
 153   2.0000      -0.458838       -12.4856
 154   2.0000      -0.456850       -12.4315
 155   2.0000      -0.448663       -12.2087
 156   2.0000      -0.442508       -12.0412
 157   2.0000      -0.437680       -11.9099
 158   2.0000      -0.433178       -11.7874
 159   2.0000      -0.422713       -11.5026
 160   2.0000      -0.419258       -11.4086
 161   2.0000      -0.415737       -11.3128
 162   2.0000      -0.411857       -11.2072
 163   2.0000      -0.405473       -11.0335
 164   2.0000      -0.402528       -10.9533
 165   2.0000      -0.402134       -10.9426
 166   2.0000      -0.400617       -10.9013
 167   2.0000      -0.399651       -10.8751
 168   2.0000      -0.391279       -10.6472
 169   2.0000      -0.390522       -10.6267
 170   2.0000      -0.389842       -10.6081
 171   2.0000      -0.385211       -10.4821
 172   2.0000      -0.384843       -10.4721
 173   2.0000      -0.384446       -10.4613
 174   2.0000      -0.382220       -10.4007
 175   2.0000      -0.369988       -10.0679
 176   2.0000      -0.355453        -9.6724
 177   2.0000      -0.344243        -9.3673
 178   2.0000      -0.340288        -9.2597
 179   2.0000      -0.336425        -9.1546
 180   2.0000      -0.330418        -8.9911
 181   2.0000      -0.327542        -8.9129
 182   2.0000      -0.326394        -8.8816
 183   2.0000      -0.324861        -8.8399
 184   2.0000      -0.323334        -8.7984
 185   2.0000      -0.321502        -8.7485
 186   2.0000      -0.299696        -8.1551
 187   2.0000      -0.297895        -8.1061
 188   2.0000      -0.295096        -8.0300
 189   0.0000      -0.060317        -1.6413
 190   0.0000      -0.056511        -1.5377
 191   0.0000      -0.055340        -1.5059
 192   0.0000      -0.046707        -1.2710
 193   0.0000      -0.044429        -1.2090

MULLIKEN ATOMIC CHARGES
-----------------------
   0 Fe:    0.791473
   1 N :   -0.355691
   2 C :    0.108073
   3 C :    0.161045
   4 C :    0.007664
   5 C :   -0.032983
   6 H :    0.090864
   7 C :    0.073726
   8 H :    0.063101
   9 H :    0.067697
  10 H :    0.070976
  11 C :    0.227800
  12 H :    0.091725
  13 N :   -0.347233
  14 C :    0.109142
  15 C :    0.028295
  16 C :    0.009980
  17 C :   -0.017154
  18 H :    0.062536
  19 C :    0.146810
  20 H :    0.049099
  21 C :   -0.005445
  22 H :    0.056623
  23 N :   -0.354051
  24 C :    0.093611
  25 C :    0.154785
  26 C :    0.021553
  27 C :   -0.027448
  28 H :    0.090923
  29 C :    0.070191
  30 H :    0.062353
  31 H :    0.067432
  32 H :    0.071789
  33 C :    0.204760
  34 H :    0.090255
  35 N :   -0.330914
  36 C :    0.129244
  37 C :    0.019281
  38 C :   -0.012252
  39 C :   -0.021553
  40 H :    0.055864
  41 C :    0.154882
  42 H :    0.069591
  43 C :   -0.005572
  44 H :    0.056980
  45 N :   -0.346072
  46 C :    0.106076
  47 C :    0.150375
  48 C :    0.007891
  49 C :   -0.025696
  50 H :    0.082001
  51 C :    0.071715
  52 H :    0.062862
  53 H :    0.063498
  54 H :    0.070526
  55 C :    0.240494
  56 H :    0.091360
  57 N :   -0.340332
  58 C :    0.103548
  59 C :   -0.006337
  60 C :    0.034163
  61 C :    0.149581
  62 H :    0.062461
  63 C :   -0.021150
  64 H :    0.057797
  65 C :   -0.001564
  66 H :    0.056394
  67 N :    0.291912
  68 O :   -0.308093
  69 O :   -0.303940
  70 N :    0.291661
  71 O :   -0.303734
  72 O :   -0.305608
  73 N :    0.292492
  74 O :   -0.309257
  75 O :   -0.302076
  76 H :    0.055864
  77 H :    0.054964
  78 H :    0.056398
Sum of atomic charges:    2.0000000

LOEWDIN ATOMIC CHARGES
----------------------
   0 Fe:    0.125875
   1 N :    0.000662
   2 C :    0.012701
   3 C :    0.082672
   4 C :    0.013304
   5 C :   -0.006080
   6 H :    0.046188
   7 C :    0.042936
   8 H :    0.061020
   9 H :    0.057580
  10 H :    0.058279
  11 C :    0.154900
  12 H :    0.060584
  13 N :   -0.006742
  14 C :    0.013350
  15 C :    0.012870
  16 C :    0.008982
  17 C :   -0.003363
  18 H :    0.054677
  19 C :   -0.021311
  20 H :    0.047932
  21 C :    0.010278
  22 H :    0.052346
  23 N :   -0.002637
  24 C :    0.004258
  25 C :    0.084766
  26 C :    0.016063
  27 C :   -0.005561
  28 H :    0.048056
  29 C :    0.045074
  30 H :    0.061540
  31 H :    0.057746
  32 H :    0.058705
  33 C :    0.143587
  34 H :    0.059487
  35 N :   -0.010824
  36 C :    0.011606
  37 C :    0.013622
  38 C :    0.012704
  39 C :   -0.007565
  40 H :    0.052647
  41 C :   -0.023033
  42 H :    0.049883
  43 C :    0.011867
  44 H :    0.052265
  45 N :   -0.002755
  46 C :    0.011547
  47 C :    0.081156
  48 C :    0.013879
  49 C :   -0.004923
  50 H :    0.043805
  51 C :    0.042781
  52 H :    0.060986
  53 H :    0.056541
  54 H :    0.058237
  55 C :    0.155402
  56 H :    0.060286
  57 N :   -0.011007
  58 C :    0.010646
  59 C :    0.006365
  60 C :    0.017488
  61 C :   -0.023987
  62 H :    0.054885
  63 C :   -0.005903
  64 H :    0.052652
  65 C :    0.013080
  66 H :    0.052020
  67 N :    0.322245
  68 O :   -0.251224
  69 O :   -0.245648
  70 N :    0.322693
  71 O :   -0.245051
  72 O :   -0.248304
  73 N :    0.322788
  74 O :   -0.252380
  75 O :   -0.243455
  76 H :    0.053863
  77 H :    0.053487
  78 H :    0.053909

  Mayer bond orders larger than 0.100000
B(  0-Fe,  1-N ) :   0.4291 B(  0-Fe, 13-N ) :   0.4273 B(  0-Fe, 23-N ) :   0.4249
B(  0-Fe, 35-N ) :   0.4155 B(  0-Fe, 45-N ) :   0.4245 B(  0-Fe, 57-N ) :   0.4178
B(  1-N ,  2-C ) :   1.2745 B(  1-N ,  3-C ) :   1.4032 B(  2-C ,  4-C ) :   1.4120
B(  2-C , 11-C ) :   1.0510 B(  3-C ,  5-C ) :   1.3867 B(  3-C ,  6-H ) :   0.9604
B(  4-C ,  7-C ) :   1.3635 B(  4-C ,  8-H ) :   0.9876 B(  5-C ,  7-C ) :   1.4104
B(  5-C ,  9-H ) :   0.9850 B(  7-C , 10-H ) :   0.9868 B( 11-C , 12-H ) :   0.9765
B( 11-C , 13-N ) :   1.7101 B( 13-N , 14-C ) :   0.9524 B( 14-C , 15-C ) :   1.3911
B( 14-C , 16-C ) :   1.3668 B( 15-C , 17-C ) :   1.3667 B( 15-C , 18-H ) :   0.9938
B( 16-C , 19-C ) :   1.3769 B( 16-C , 20-H ) :   0.9914 B( 17-C , 21-C ) :   1.3757
B( 17-C , 22-H ) :   0.9912 B( 19-C , 21-C ) :   1.3676 B( 19-C , 73-N ) :   0.8531
B( 21-C , 78-H ) :   0.9968 B( 23-N , 24-C ) :   1.2724 B( 23-N , 25-C ) :   1.4018
B( 24-C , 26-C ) :   1.4141 B( 24-C , 33-C ) :   1.0533 B( 25-C , 27-C ) :   1.3841
B( 25-C , 28-H ) :   0.9647 B( 26-C , 29-C ) :   1.3574 B( 26-C , 30-H ) :   0.9883
B( 27-C , 29-C ) :   1.4054 B( 27-C , 31-H ) :   0.9872 B( 29-C , 32-H ) :   0.9872
B( 33-C , 34-H ) :   0.9780 B( 33-C , 35-N ) :   1.6873 B( 35-N , 36-C ) :   0.9752
B( 36-C , 37-C ) :   1.3772 B( 36-C , 38-C ) :   1.3630 B( 37-C , 39-C ) :   1.3703
B( 37-C , 40-H ) :   0.9918 B( 38-C , 41-C ) :   1.3769 B( 38-C , 42-H ) :   0.9841
B( 39-C , 43-C ) :   1.3725 B( 39-C , 44-H ) :   0.9911 B( 41-C , 43-C ) :   1.3683
B( 41-C , 70-N ) :   0.8532 B( 43-C , 77-H ) :   0.9970 B( 45-N , 46-C ) :   1.2771
B( 45-N , 47-C ) :   1.4040 B( 46-C , 48-C ) :   1.4096 B( 46-C , 55-C ) :   1.0556
B( 47-C , 49-C ) :   1.3910 B( 47-C , 50-H ) :   0.9646 B( 48-C , 51-C ) :   1.3592
B( 48-C , 52-H ) :   0.9881 B( 49-C , 51-C ) :   1.4052 B( 49-C , 53-H ) :   0.9874
B( 51-C , 54-H ) :   0.9877 B( 55-C , 56-H ) :   0.9731 B( 55-C , 57-N ) :   1.7000
B( 57-N , 58-C ) :   0.9572 B( 58-C , 59-C ) :   1.3790 B( 58-C , 60-C ) :   1.3725
B( 59-C , 61-C ) :   1.3449 B( 59-C , 62-H ) :   0.9911 B( 60-C , 63-C ) :   1.3901
B( 60-C , 64-H ) :   0.9907 B( 61-C , 65-C ) :   1.3875 B( 61-C , 67-N ) :   0.8534
B( 63-C , 65-C ) :   1.3554 B( 63-C , 66-H ) :   0.9908 B( 65-C , 76-H ) :   0.9962
B( 67-N , 68-O ) :   1.5295 B( 67-N , 69-O ) :   1.5408 B( 68-O , 69-O ) :   0.2354
B( 70-N , 71-O ) :   1.5407 B( 70-N , 72-O ) :   1.5250 B( 71-O , 72-O ) :   0.2347
B( 73-N , 74-O ) :   1.5239 B( 73-N , 75-O ) :   1.5428 B( 74-O , 75-O ) :   0.2357

MP2 TOTAL ENERGY:    -3591.080765380 Eh

-----------------------------------------------------------------------------
         ABSORPTION SPECTRUM VIA TRANSITION ELECTRIC DIPOLE MOMENTS
-----------------------------------------------------------------------------
State   Energy    Wavelength  fosc         T2        TX        TY        TZ
        (cm-1)      (nm)                 (au**2)    (au)      (au)      (au)
-----------------------------------------------------------------------------
   1   16550.0    604.2   0.000039122   0.00078  -0.02405   0.00080   0.01412
   2   17097.7    584.9   0.000013362   0.00026   0.01512  -0.00130  -0.00521
   3   17865.1    559.8   0.000082234   0.00152  -0.03628   0.00026   0.01410
   4   25447.6    393.0   0.000209879   0.00272  -0.01821  -0.01439   0.04665
   5   25959.7    385.2   0.000357042   0.00453  -0.03481  -0.05706  -0.00774
   6   27350.0    365.6   0.000122792   0.00148   0.00297  -0.03384   0.01800
   7   26468.5    377.8   0.172203437   2.14185   0.59688  -0.74975  -1.10610
   8   25865.7    386.6   0.272674851   3.47054  -0.47213   1.47238  -1.03909
   9   28962.8    345.3   0.582859363   6.62520   2.21831  -0.62290  -1.14730
  10   31360.4    318.9   0.002421161   0.02542  -0.06031  -0.06119   0.13429
  11   31312.9    319.4   0.000537569   0.00565  -0.05556   0.00204   0.05060
  12   31351.4    319.0   0.001169140   0.01228   0.00120   0.10869   0.02151
  13   17839.4    560.6   0.007321628   0.13511   0.01741   0.04790   0.36403
  14   23365.7    428.0   0.019259573   0.27136   0.45981   0.20003  -0.14116
  15   18074.0    553.3   0.019389528   0.35317   0.28389   0.04171  -0.52042
  16   19151.0    522.2   0.015461821   0.26579   0.11155  -0.50307   0.01630
  17   26349.1    379.5   0.025853051   0.32301   0.43069   0.31343  -0.19819
  18   22153.1    451.4   0.069490050   1.03268   0.35805  -0.77068   0.55726
  19   31592.1    316.5   0.043882315   0.45728  -0.51420  -0.43737   0.03985
  20   24785.2    403.5   0.036806624   0.48889   0.08964  -0.14880  -0.67728
  21   20776.3    481.3   0.026424179   0.41871   0.38201  -0.52146   0.02912
  22   28851.9    346.6   0.002591194   0.02957   0.14202   0.03617   0.08993
  23   35953.7    278.1   0.000988633   0.00905   0.06158   0.02231  -0.06902
  24   35943.4    278.2   0.000070290   0.00064  -0.02233  -0.00128   0.01198
  25   32744.5    305.4   0.010354100   0.10410  -0.03731   0.26656   0.17792
  26   16331.8    612.3   0.009880876   0.19918   0.16191  -0.30822  -0.27922
  27   25789.8    387.8   0.010478456   0.13376   0.20380   0.24941   0.17326
  28   29167.5    342.8   0.014931989   0.16854   0.34432   0.18458  -0.12613
  29   34443.1    290.3   0.035947971   0.34360   0.23621  -0.51975  -0.13289
  30   34497.4    289.9   0.043818765   0.41817   0.29108   0.57591   0.04199
  31   34913.7    286.4   0.028190531   0.26582  -0.01795   0.37008   0.35852
  32   34599.1    289.0   0.123568884   1.17576  -0.52725  -0.21690  -0.92235
  33   37406.0    267.3   0.266070050   2.34170   1.38315   0.57667  -0.30993
  34   32627.7    306.5   0.188068103   1.89760   0.15520  -1.18865   0.67869
  35   35514.2    281.6   0.049587799   0.45967  -0.28820  -0.48025   0.38207
  36   32337.7    309.2   0.096328534   0.98067  -0.96267   0.21274   0.09314
  37   35462.0    282.0   0.007168338   0.06655  -0.23440   0.06205   0.08804
  38   33521.3    298.3   0.035123186   0.34494   0.17359   0.53438  -0.17103
  39   32758.2    305.3   0.005493456   0.05521   0.20775   0.10864  -0.01565
  40   36659.0    272.8   0.000336110   0.00302  -0.03931  -0.03241  -0.02055

FINAL SINGLE POINT ENERGY     -3588.421841363194

DIPOLE MOMENT
-------------
                                X             Y             Z
Electronic contribution:      1.35572      -4.16587       1.81198
Nuclear contribution   :     -3.36808      12.51579      -3.91256
                        -----------------------------------------
Total Dipole Moment    :     -2.01236       8.34992      -2.10058
                        -----------------------------------------
Magnitude (a.u.)       :      8.84213
Magnitude (Debye)      :     22.47490

Rotational constants in cm-1:     0.002342     0.001850     0.001765
Rotational constants in MHz :    70.207339    55.448862    52.928199

                             ****ORCA TERMINATED NORMALLY****
TOTAL RUN TIME: 0 days 3 hours 30 minutes 25 seconds 770 msec
