                         Program Version 5.0.4 -  RELEASE  -
|  1> %maxcore 8000
|  2> %pal
|  3>  nprocs 8
|  4> end
|  5> ! RI-SOS-wPBEPP86 def2-SVP def2/J def2-SVP/C RIJCOSX CPCM TIGHTSCF
|  6>
|  7> %TDDFT
|  8>     DCORR     1
|  9>     NROOTS    40
| 10>     doscs     TRUE
| 11>     TDA       FALSE
| 12> END
| 13>
| 14> %CPCM
| 15>     SMD		TRUE
| 16>     SMDsolvent	"Acetonitrile"
| 17> END
| 18>
| 19> * xyz 2 1
| 20> Fe                 -0.18777100    1.05758600   -0.13113800
| 21> N                  -0.48003200    3.00136200   -0.43003700
| 22> C                   0.43006300    3.80157600    0.19242800
| 23> C                  -1.41109800    3.57495200   -1.20022000
| 24> C                   0.40284300    5.19109000    0.07714900
| 25> C                  -1.49755800    4.95702500   -1.35957400
| 26> H                  -2.10821100    2.91105600   -1.71492700
| 27> C                  -0.58276300    5.78006200   -0.70840700
| 28> H                   1.15441400    5.78452500    0.59952000
| 29> H                  -2.28088600    5.37087700   -1.99527600
| 30> H                  -0.63126900    6.86452000   -0.81763900
| 31> C                   1.40525100    3.07821200    0.97040200
| 32> H                   2.18337600    3.60816500    1.53236900
| 33> N                   1.30718700    1.78536900    0.97266300
| 34> C                   2.25689000    1.00824200    1.67578700
| 35> C                   3.63106500    1.14870600    1.43566000
| 36> C                   1.80578500    0.04188200    2.57518300
| 37> C                   4.54302900    0.30736000    2.07165000
| 38> H                   3.98000800    1.89937800    0.72246200
| 39> C                   2.73698000   -0.78196000    3.19233000
| 40> H                   0.75150700   -0.05245100    2.82253400
| 41> C                   4.10587100   -0.67499400    2.95432200
| 42> H                   5.60865400    0.41183500    1.86107900
| 43> N                  -1.34976400    0.90657100    1.47524300
| 44> C                  -1.58703800   -0.37689700    1.86954100
| 45> C                  -1.94169300    1.89972700    2.14724000
| 46> C                  -2.44980600   -0.68649800    2.92028800
| 47> C                  -2.81000500    1.66323000    3.21208700
| 48> H                  -1.72930200    2.91900400    1.81694300
| 49> C                  -3.07891200    0.35292800    3.59898700
| 50> H                  -2.60503000   -1.73165600    3.19271300
| 51> H                  -3.26862100    2.51056200    3.72259000
| 52> H                  -3.76115800    0.14393300    4.42436300
| 53> C                  -0.82124100   -1.36345200    1.14765600
| 54> H                  -0.91931900   -2.42887100    1.39044100
| 55> N                   0.02076700   -0.91862700    0.26603100
| 56> C                   0.79447900   -1.81849000   -0.49573500
| 57> C                   0.25444000   -3.00403700   -1.01840100
| 58> C                   2.12095400   -1.48137200   -0.77465000
| 59> C                   1.03698300   -3.83680900   -1.81665400
| 60> H                  -0.78724400   -3.26363900   -0.81464900
| 61> C                   2.87601400   -2.33120500   -1.56977000
| 62> H                   2.56605200   -0.57422700   -0.37118700
| 63> C                   2.35832000   -3.50874600   -2.10612900
| 64> H                   0.60393900   -4.75017500   -2.22749700
| 65> N                   0.84373900    1.01113700   -1.85494900
| 66> C                   0.14776900    0.47912400   -2.89753200
| 67> C                   2.10060400    1.41040500   -2.07606600
| 68> C                   0.71191200    0.29605200   -4.15990500
| 69> C                   2.72796000    1.26479400   -3.31279300
| 70> H                   2.64156700    1.85016300   -1.23606200
| 71> C                   2.03065700    0.68774600   -4.36962100
| 72> H                   0.10903600   -0.14752400   -4.95347600
| 73> H                   3.76051500    1.59645500   -3.42612900
| 74> H                   2.50282700    0.55250300   -5.34390900
| 75> C                  -1.21317600    0.12568600   -2.57973100
| 76> H                  -1.85670100   -0.34460400   -3.33318500
| 77> N                  -1.63270500    0.40012600   -1.38525100
| 78> C                  -2.91320400   -0.03859900   -0.97988000
| 79> C                  -3.27216100   -1.37601400   -1.16167400
| 80> C                  -3.79145500    0.83980700   -0.32800900
| 81> C                  -4.50197900   -1.80649400   -0.67403900
| 82> H                  -2.59726700   -2.07751000   -1.65300700
| 83> C                  -5.02402800    0.38409700    0.12931000
| 84> H                  -3.50448100    1.88375800   -0.19111300
| 85> C                  -5.39125500   -0.95063900   -0.03128000
| 86> H                  -5.70443200    1.07670400    0.62768000
| 87> N                  -4.85584700   -3.22389200   -0.83111400
| 88> O                  -4.01054900   -3.97268800   -1.29780500
| 89> O                  -5.97216900   -3.57307900   -0.48319000
| 90> N                   4.26145300   -1.94564600   -1.87187500
| 91> O                   4.92465400   -2.70379100   -2.56052900
| 92> O                   4.66903800   -0.88475400   -1.42093700
| 93> N                   2.24269400   -1.81744600    4.10960400
| 94> O                   1.03329700   -1.98189400    4.18342200
| 95> O                   3.06698800   -2.46086800    4.73819700
| 96> H                  -6.34319700   -1.33028000    0.33839700
| 97> H                   2.98039300   -4.14247700   -2.73739900
| 98> H                   4.80140000   -1.35235500    3.44878600
| 99> *
|100>
|101>                          ****END OF INPUT****

CARTESIAN COORDINATES (ANGSTROEM)
---------------------------------
  Fe    -0.187771    1.057586   -0.131138
  N     -0.480032    3.001362   -0.430037
  C      0.430063    3.801576    0.192428
  C     -1.411098    3.574952   -1.200220
  C      0.402843    5.191090    0.077149
  C     -1.497558    4.957025   -1.359574
  H     -2.108211    2.911056   -1.714927
  C     -0.582763    5.780062   -0.708407
  H      1.154414    5.784525    0.599520
  H     -2.280886    5.370877   -1.995276
  H     -0.631269    6.864520   -0.817639
  C      1.405251    3.078212    0.970402
  H      2.183376    3.608165    1.532369
  N      1.307187    1.785369    0.972663
  C      2.256890    1.008242    1.675787
  C      3.631065    1.148706    1.435660
  C      1.805785    0.041882    2.575183
  C      4.543029    0.307360    2.071650
  H      3.980008    1.899378    0.722462
  C      2.736980   -0.781960    3.192330
  H      0.751507   -0.052451    2.822534
  C      4.105871   -0.674994    2.954322
  H      5.608654    0.411835    1.861079
  N     -1.349764    0.906571    1.475243
  C     -1.587038   -0.376897    1.869541
  C     -1.941693    1.899727    2.147240
  C     -2.449806   -0.686498    2.920288
  C     -2.810005    1.663230    3.212087
  H     -1.729302    2.919004    1.816943
  C     -3.078912    0.352928    3.598987
  H     -2.605030   -1.731656    3.192713
  H     -3.268621    2.510562    3.722590
  H     -3.761158    0.143933    4.424363
  C     -0.821241   -1.363452    1.147656
  H     -0.919319   -2.428871    1.390441
  N      0.020767   -0.918627    0.266031
  C      0.794479   -1.818490   -0.495735
  C      0.254440   -3.004037   -1.018401
  C      2.120954   -1.481372   -0.774650
  C      1.036983   -3.836809   -1.816654
  H     -0.787244   -3.263639   -0.814649
  C      2.876014   -2.331205   -1.569770
  H      2.566052   -0.574227   -0.371187
  C      2.358320   -3.508746   -2.106129
  H      0.603939   -4.750175   -2.227497
  N      0.843739    1.011137   -1.854949
  C      0.147769    0.479124   -2.897532
  C      2.100604    1.410405   -2.076066
  C      0.711912    0.296052   -4.159905
  C      2.727960    1.264794   -3.312793
  H      2.641567    1.850163   -1.236062
  C      2.030657    0.687746   -4.369621
  H      0.109036   -0.147524   -4.953476
  H      3.760515    1.596455   -3.426129
  H      2.502827    0.552503   -5.343909
  C     -1.213176    0.125686   -2.579731
  H     -1.856701   -0.344604   -3.333185
  N     -1.632705    0.400126   -1.385251
  C     -2.913204   -0.038599   -0.979880
  C     -3.272161   -1.376014   -1.161674
  C     -3.791455    0.839807   -0.328009
  C     -4.501979   -1.806494   -0.674039
  H     -2.597267   -2.077510   -1.653007
  C     -5.024028    0.384097    0.129310
  H     -3.504481    1.883758   -0.191113
  C     -5.391255   -0.950639   -0.031280
  H     -5.704432    1.076704    0.627680
  N     -4.855847   -3.223892   -0.831114
  O     -4.010549   -3.972688   -1.297805
  O     -5.972169   -3.573079   -0.483190
  N      4.261453   -1.945646   -1.871875
  O      4.924654   -2.703791   -2.560529
  O      4.669038   -0.884754   -1.420937
  N      2.242694   -1.817446    4.109604
  O      1.033297   -1.981894    4.183422
  O      3.066988   -2.460868    4.738197
  H     -6.343197   -1.330280    0.338397
  H      2.980393   -4.142477   -2.737399
  H      4.801400   -1.352355    3.448786

 Total Charge           Charge          ....    2
 Multiplicity           Mult            ....    1
 Number of Electrons    NEL             ....  378
 Basis Dimension        Dim             ....  880

ORBITAL ENERGIES
----------------

  NO   OCC          E(Eh)            E(eV)
   0   2.0000    -259.392713     -7058.4346
   1   2.0000     -31.238873      -850.0530
   2   2.0000     -26.863499      -730.9930
   3   2.0000     -26.863169      -730.9840
   4   2.0000     -26.861337      -730.9341
   5   2.0000     -20.111811      -547.2702
   6   2.0000     -20.111167      -547.2527
   7   2.0000     -20.111011      -547.2484
   8   2.0000     -20.110857      -547.2442
   9   2.0000     -20.110631      -547.2381
  10   2.0000     -20.110347      -547.2304
  11   2.0000     -15.417885      -419.5420
  12   2.0000     -15.417251      -419.5247
  13   2.0000     -15.417233      -419.5242
  14   2.0000     -15.201011      -413.6405
  15   2.0000     -15.200077      -413.6151
  16   2.0000     -15.199427      -413.5974
  17   2.0000     -15.199392      -413.5965
  18   2.0000     -15.199300      -413.5940
  19   2.0000     -15.198833      -413.5813
  20   2.0000     -10.974094      -298.6203
  21   2.0000     -10.973479      -298.6036
  22   2.0000     -10.973410      -298.6017
  23   2.0000     -10.956096      -298.1305
  24   2.0000     -10.954948      -298.0993
  25   2.0000     -10.954325      -298.0823
  26   2.0000     -10.952932      -298.0444
  27   2.0000     -10.952551      -298.0341
  28   2.0000     -10.952142      -298.0229
  29   2.0000     -10.948154      -297.9144
  30   2.0000     -10.947873      -297.9068
  31   2.0000     -10.947832      -297.9057
  32   2.0000     -10.947422      -297.8945
  33   2.0000     -10.946692      -297.8746
  34   2.0000     -10.946576      -297.8715
  35   2.0000     -10.920403      -297.1593
  36   2.0000     -10.919518      -297.1352
  37   2.0000     -10.919310      -297.1295
  38   2.0000     -10.918118      -297.0971
  39   2.0000     -10.917554      -297.0817
  40   2.0000     -10.916674      -297.0578
  41   2.0000     -10.916637      -297.0568
  42   2.0000     -10.915727      -297.0320
  43   2.0000     -10.915411      -297.0234
  44   2.0000     -10.914386      -296.9955
  45   2.0000     -10.913584      -296.9737
  46   2.0000     -10.913121      -296.9611
  47   2.0000     -10.911959      -296.9295
  48   2.0000     -10.911865      -296.9269
  49   2.0000     -10.911242      -296.9100
  50   2.0000     -10.909453      -296.8613
  51   2.0000     -10.908949      -296.8476
  52   2.0000     -10.908513      -296.8357
  53   2.0000     -10.904428      -296.7246
  54   2.0000     -10.903880      -296.7097
  55   2.0000     -10.903493      -296.6991
  56   2.0000      -3.891760      -105.9002
  57   2.0000      -2.544575       -69.2414
  58   2.0000      -2.542996       -69.1984
  59   2.0000      -2.538621       -69.0794
  60   2.0000      -1.524165       -41.4746
  61   2.0000      -1.523636       -41.4602
  62   2.0000      -1.523427       -41.4545
  63   2.0000      -1.325894       -36.0794
  64   2.0000      -1.325284       -36.0628
  65   2.0000      -1.325159       -36.0594
  66   2.0000      -1.253125       -34.0993
  67   2.0000      -1.242662       -33.8145
  68   2.0000      -1.240787       -33.7635
  69   2.0000      -1.208438       -32.8833
  70   2.0000      -1.207995       -32.8712
  71   2.0000      -1.206443       -32.8290
  72   2.0000      -1.127302       -30.6754
  73   2.0000      -1.126876       -30.6638
  74   2.0000      -1.126367       -30.6500
  75   2.0000      -1.053529       -28.6680
  76   2.0000      -1.052176       -28.6312
  77   2.0000      -1.050729       -28.5918
  78   2.0000      -1.043422       -28.3930
  79   2.0000      -1.042439       -28.3662
  80   2.0000      -1.041901       -28.3516
  81   2.0000      -1.020619       -27.7724
  82   2.0000      -1.020413       -27.7669
  83   2.0000      -1.019922       -27.7535
  84   2.0000      -0.984297       -26.7841
  85   2.0000      -0.983425       -26.7604
  86   2.0000      -0.980619       -26.6840
  87   2.0000      -0.916652       -24.9434
  88   2.0000      -0.912881       -24.8408
  89   2.0000      -0.912143       -24.8207
  90   2.0000      -0.896161       -24.3858
  91   2.0000      -0.893784       -24.3211
  92   2.0000      -0.892430       -24.2843
  93   2.0000      -0.853044       -23.2125
  94   2.0000      -0.852523       -23.1983
  95   2.0000      -0.851982       -23.1836
  96   2.0000      -0.828875       -22.5548
  97   2.0000      -0.824242       -22.4288
  98   2.0000      -0.823109       -22.3979
  99   2.0000      -0.808091       -21.9893
 100   2.0000      -0.806102       -21.9351
 101   2.0000      -0.795007       -21.6332
 102   2.0000      -0.776970       -21.1424
 103   2.0000      -0.774908       -21.0863
 104   2.0000      -0.774210       -21.0673
 105   2.0000      -0.752220       -20.4690
 106   2.0000      -0.749794       -20.4029
 107   2.0000      -0.748862       -20.3776
 108   2.0000      -0.737535       -20.0694
 109   2.0000      -0.722422       -19.6581
 110   2.0000      -0.720271       -19.5996
 111   2.0000      -0.719624       -19.5820
 112   2.0000      -0.719554       -19.5801
 113   2.0000      -0.718621       -19.5547
 114   2.0000      -0.710099       -19.3228
 115   2.0000      -0.708210       -19.2714
 116   2.0000      -0.707300       -19.2466
 117   2.0000      -0.691485       -18.8163
 118   2.0000      -0.686605       -18.6835
 119   2.0000      -0.686149       -18.6711
 120   2.0000      -0.679053       -18.4780
 121   2.0000      -0.678459       -18.4618
 122   2.0000      -0.674649       -18.3581
 123   2.0000      -0.664193       -18.0736
 124   2.0000      -0.662262       -18.0211
 125   2.0000      -0.660988       -17.9864
 126   2.0000      -0.653817       -17.7913
 127   2.0000      -0.651365       -17.7245
 128   2.0000      -0.649720       -17.6798
 129   2.0000      -0.646426       -17.5902
 130   2.0000      -0.645523       -17.5656
 131   2.0000      -0.639577       -17.4038
 132   2.0000      -0.624919       -17.0049
 133   2.0000      -0.619691       -16.8627
 134   2.0000      -0.615529       -16.7494
 135   2.0000      -0.614110       -16.7108
 136   2.0000      -0.611016       -16.6266
 137   2.0000      -0.607226       -16.5235
 138   2.0000      -0.605685       -16.4815
 139   2.0000      -0.600486       -16.3401
 140   2.0000      -0.593850       -16.1595
 141   2.0000      -0.588668       -16.0185
 142   2.0000      -0.583246       -15.8709
 143   2.0000      -0.575230       -15.6528
 144   2.0000      -0.560537       -15.2530
 145   2.0000      -0.555317       -15.1109
 146   2.0000      -0.549904       -14.9636
 147   2.0000      -0.544228       -14.8092
 148   2.0000      -0.542070       -14.7505
 149   2.0000      -0.541384       -14.7318
 150   2.0000      -0.538617       -14.6565
 151   2.0000      -0.538146       -14.6437
 152   2.0000      -0.533975       -14.5302
 153   2.0000      -0.533283       -14.5114
 154   2.0000      -0.531301       -14.4574
 155   2.0000      -0.523770       -14.2525
 156   2.0000      -0.518131       -14.0991
 157   2.0000      -0.512945       -13.9579
 158   2.0000      -0.508318       -13.8320
 159   2.0000      -0.498555       -13.5664
 160   2.0000      -0.492698       -13.4070
 161   2.0000      -0.490991       -13.3606
 162   2.0000      -0.487698       -13.2709
 163   2.0000      -0.483687       -13.1618
 164   2.0000      -0.482471       -13.1287
 165   2.0000      -0.481915       -13.1136
 166   2.0000      -0.479234       -13.0406
 167   2.0000      -0.477334       -12.9889
 168   2.0000      -0.476413       -12.9639
 169   2.0000      -0.475845       -12.9484
 170   2.0000      -0.474188       -12.9033
 171   2.0000      -0.461210       -12.5502
 172   2.0000      -0.459698       -12.5090
 173   2.0000      -0.459174       -12.4948
 174   2.0000      -0.458620       -12.4797
 175   2.0000      -0.444679       -12.1003
 176   2.0000      -0.431117       -11.7313
 177   2.0000      -0.419220       -11.4076
 178   2.0000      -0.409758       -11.1501
 179   2.0000      -0.404219       -10.9993
 180   2.0000      -0.402102       -10.9418
 181   2.0000      -0.395866       -10.7721
 182   2.0000      -0.392387       -10.6774
 183   2.0000      -0.388285       -10.5658
 184   2.0000      -0.386280       -10.5112
 185   2.0000      -0.384799       -10.4709
 186   2.0000      -0.360444        -9.8082
 187   2.0000      -0.357988        -9.7414
 188   2.0000      -0.352781        -9.5997
 189   0.0000      -0.027913        -0.7595
 190   0.0000      -0.023114        -0.6290
 191   0.0000      -0.021235        -0.5778
 192   0.0000      -0.010635        -0.2894
 193   0.0000      -0.007966        -0.2168

MULLIKEN ATOMIC CHARGES
-----------------------
   0 Fe:    0.927421
   1 N :   -0.446404
   2 C :    0.076427
   3 C :    0.164738
   4 C :   -0.018993
   5 C :   -0.100268
   6 H :    0.131613
   7 C :    0.030251
   8 H :    0.115841
   9 H :    0.119752
  10 H :    0.123529
  11 C :    0.259877
  12 H :    0.140487
  13 N :   -0.433102
  14 C :    0.079443
  15 C :   -0.008379
  16 C :    0.012152
  17 C :   -0.067453
  18 H :    0.112146
  19 C :    0.105583
  20 H :    0.100884
  21 C :   -0.019140
  22 H :    0.109426
  23 N :   -0.437270
  24 C :    0.056609
  25 C :    0.155738
  26 C :   -0.005192
  27 C :   -0.093407
  28 H :    0.134616
  29 C :    0.028618
  30 H :    0.114928
  31 H :    0.119655
  32 H :    0.124273
  33 C :    0.230055
  34 H :    0.139986
  35 N :   -0.411007
  36 C :    0.105682
  37 C :   -0.005547
  38 C :   -0.009680
  39 C :   -0.077536
  40 H :    0.104623
  41 C :    0.115704
  42 H :    0.109491
  43 C :   -0.018304
  44 H :    0.110476
  45 N :   -0.431875
  46 C :    0.077126
  47 C :    0.151067
  48 C :   -0.020735
  49 C :   -0.093318
  50 H :    0.124002
  51 C :    0.030136
  52 H :    0.115581
  53 H :    0.116027
  54 H :    0.122983
  55 C :    0.268050
  56 H :    0.140358
  57 N :   -0.423134
  58 C :    0.072448
  59 C :   -0.002347
  60 C :    0.007546
  61 C :    0.106597
  62 H :    0.113092
  63 C :   -0.076749
  64 H :    0.104981
  65 C :   -0.014589
  66 H :    0.109259
  67 N :    0.301446
  68 O :   -0.327369
  69 O :   -0.322651
  70 N :    0.301204
  71 O :   -0.322038
  72 O :   -0.323288
  73 N :    0.301906
  74 O :   -0.328422
  75 O :   -0.320378
  76 H :    0.111746
  77 H :    0.111009
  78 H :    0.111985
Sum of atomic charges:    2.0000000

LOEWDIN ATOMIC CHARGES
----------------------
   0 Fe:    0.140792
   1 N :   -0.013065
   2 C :    0.008166
   3 C :    0.082821
   4 C :    0.002783
   5 C :   -0.018943
   6 H :    0.054141
   7 C :    0.039494
   8 H :    0.071248
   9 H :    0.067652
  10 H :    0.068951
  11 C :    0.167760
  12 H :    0.071860
  13 N :   -0.023437
  14 C :    0.008280
  15 C :    0.006329
  16 C :    0.004515
  17 C :   -0.013044
  18 H :    0.064542
  19 C :   -0.028549
  20 H :    0.055624
  21 C :    0.004844
  22 H :    0.062905
  23 N :   -0.015525
  24 C :   -0.000837
  25 C :    0.085034
  26 C :    0.005344
  27 C :   -0.018489
  28 H :    0.055848
  29 C :    0.042183
  30 H :    0.071761
  31 H :    0.067864
  32 H :    0.069427
  33 C :    0.152615
  34 H :    0.070443
  35 N :   -0.025870
  36 C :    0.006493
  37 C :    0.007635
  38 C :    0.008187
  39 C :   -0.017703
  40 H :    0.062175
  41 C :   -0.030537
  42 H :    0.055172
  43 C :    0.006962
  44 H :    0.063031
  45 N :   -0.016151
  46 C :    0.007057
  47 C :    0.081236
  48 C :    0.002807
  49 C :   -0.018619
  50 H :    0.051589
  51 C :    0.039516
  52 H :    0.071196
  53 H :    0.066724
  54 H :    0.068905
  55 C :    0.165748
  56 H :    0.071296
  57 N :   -0.028400
  58 C :    0.006026
  59 C :    0.000394
  60 C :    0.011633
  61 C :   -0.031371
  62 H :    0.064428
  63 C :   -0.016436
  64 H :    0.060568
  65 C :    0.008397
  66 H :    0.062699
  67 N :    0.340556
  68 O :   -0.262748
  69 O :   -0.257177
  70 N :    0.341148
  71 O :   -0.256331
  72 O :   -0.259267
  73 N :    0.341255
  74 O :   -0.264165
  75 O :   -0.254627
  76 H :    0.065152
  77 H :    0.064957
  78 H :    0.065119

  Mayer bond orders larger than 0.100000
B(  0-Fe,  1-N ) :   0.3794 B(  0-Fe, 13-N ) :   0.3795 B(  0-Fe, 23-N ) :   0.3760
B(  0-Fe, 35-N ) :   0.3705 B(  0-Fe, 45-N ) :   0.3756 B(  0-Fe, 57-N ) :   0.3723
B(  1-N ,  2-C ) :   1.2645 B(  1-N ,  3-C ) :   1.3945 B(  2-C ,  4-C ) :   1.4369
B(  2-C , 11-C ) :   1.0571 B(  3-C ,  5-C ) :   1.4013 B(  3-C ,  6-H ) :   0.9578
B(  4-C ,  7-C ) :   1.3754 B(  4-C ,  8-H ) :   0.9770 B(  5-C ,  7-C ) :   1.4294
B(  5-C ,  9-H ) :   0.9776 B(  7-C , 10-H ) :   0.9788 B( 11-C , 12-H ) :   0.9673
B( 11-C , 13-N ) :   1.7275 B( 13-N , 14-C ) :   0.9427 B( 14-C , 15-C ) :   1.4078
B( 14-C , 16-C ) :   1.3933 B( 15-C , 17-C ) :   1.3879 B( 15-C , 18-H ) :   0.9869
B( 16-C , 19-C ) :   1.4009 B( 16-C , 20-H ) :   0.9783 B( 17-C , 21-C ) :   1.4040
B( 17-C , 22-H ) :   0.9839 B( 19-C , 21-C ) :   1.3792 B( 19-C , 73-N ) :   0.8340
B( 21-C , 78-H ) :   0.9841 B( 23-N , 24-C ) :   1.2624 B( 23-N , 25-C ) :   1.3952
B( 24-C , 26-C ) :   1.4398 B( 24-C , 33-C ) :   1.0612 B( 25-C , 27-C ) :   1.3977
B( 25-C , 28-H ) :   0.9612 B( 26-C , 29-C ) :   1.3672 B( 26-C , 30-H ) :   0.9786
B( 27-C , 29-C ) :   1.4257 B( 27-C , 31-H ) :   0.9797 B( 29-C , 32-H ) :   0.9792
B( 33-C , 34-H ) :   0.9688 B( 33-C , 35-N ) :   1.7045 B( 35-N , 36-C ) :   0.9679
B( 36-C , 37-C ) :   1.3882 B( 36-C , 38-C ) :   1.3877 B( 37-C , 39-C ) :   1.3937
B( 37-C , 40-H ) :   0.9842 B( 38-C , 41-C ) :   1.4012 B( 38-C , 42-H ) :   0.9766
B( 39-C , 43-C ) :   1.4012 B( 39-C , 44-H ) :   0.9833 B( 41-C , 43-C ) :   1.3797
B( 41-C , 70-N ) :   0.8337 B( 43-C , 77-H ) :   0.9844 B( 45-N , 46-C ) :   1.2676
B( 45-N , 47-C ) :   1.3977 B( 46-C , 48-C ) :   1.4340 B( 46-C , 55-C ) :   1.0616
B( 47-C , 49-C ) :   1.4039 B( 47-C , 50-H ) :   0.9626 B( 48-C , 51-C ) :   1.3710
B( 48-C , 52-H ) :   0.9777 B( 49-C , 51-C ) :   1.4248 B( 49-C , 53-H ) :   0.9805
B( 51-C , 54-H ) :   0.9797 B( 55-C , 56-H ) :   0.9643 B( 55-C , 57-N ) :   1.7153
B( 57-N , 58-C ) :   0.9525 B( 58-C , 59-C ) :   1.4095 B( 58-C , 60-C ) :   1.3812
B( 59-C , 61-C ) :   1.3661 B( 59-C , 62-H ) :   0.9769 B( 60-C , 63-C ) :   1.4161
B( 60-C , 64-H ) :   0.9834 B( 61-C , 65-C ) :   1.4010 B( 61-C , 67-N ) :   0.8337
B( 63-C , 65-C ) :   1.3801 B( 63-C , 66-H ) :   0.9843 B( 65-C , 76-H ) :   0.9839
B( 67-N , 68-O ) :   1.5295 B( 67-N , 69-O ) :   1.5399 B( 68-O , 69-O ) :   0.2181
B( 70-N , 71-O ) :   1.5402 B( 70-N , 72-O ) :   1.5255 B( 71-O , 72-O ) :   0.2174
B( 73-N , 74-O ) :   1.5235 B( 73-N , 75-O ) :   1.5424 B( 74-O , 75-O ) :   0.2181

MP2 TOTAL ENERGY:    -3590.750669694 Eh

-----------------------------------------------------------------------------
         ABSORPTION SPECTRUM VIA TRANSITION ELECTRIC DIPOLE MOMENTS
-----------------------------------------------------------------------------
State   Energy    Wavelength  fosc         T2        TX        TY        TZ
        (cm-1)      (nm)                 (au**2)    (au)      (au)      (au)
-----------------------------------------------------------------------------
   1   13872.5    720.9   0.000018601   0.00044   0.01989  -0.00491  -0.00467
   2   14274.7    700.5   0.000016940   0.00039   0.01867   0.00114  -0.00639
   3   14923.1    670.1   0.000036024   0.00079   0.02566  -0.00675  -0.00954
   4   24507.7    408.0   0.000044469   0.00060   0.00449   0.00491  -0.02352
   5   25064.2    399.0   0.000048530   0.00064   0.01819   0.01648   0.00592
   6   26078.6    383.5   0.000009337   0.00012  -0.00252   0.00394  -0.00980
   7   32513.7    307.6   0.374668664   3.79364   0.97527  -0.92079  -1.41232
   8   31118.5    321.4   0.000215263   0.00228   0.02790  -0.00590   0.03826
   9   31105.4    321.5   0.005276038   0.05584   0.15679   0.05505  -0.16801
  10   31134.3    321.2   0.002409873   0.02548   0.05577  -0.07168  -0.13128
  11   33571.1    297.9   0.489805705   4.80323  -1.54658  -0.61208   1.42713
  12   33652.1    297.2   0.639156157   6.25274   1.79645  -1.67206   0.47929
  13   35483.8    281.8   0.006854829   0.06360  -0.16214   0.18535   0.05437
  14   35653.4    280.5   0.002347789   0.02168  -0.14477  -0.01880  -0.01918
  15   35772.6    279.5   0.000022978   0.00021   0.00770  -0.00597   0.01079
  16   34447.6    290.3   0.029236171   0.27941   0.43271   0.30185   0.03253
  17   35117.8    284.8   0.056805037   0.53252  -0.53858   0.43848   0.22403
  18   35052.9    285.3   0.027938797   0.26240  -0.50618  -0.07243   0.03053
  19   38645.2    258.8   0.044012868   0.37494   0.11283  -0.52812  -0.28860
  20   39266.7    254.7   0.074385058   0.62364  -0.37982   0.54905  -0.42181
  21   38807.8    257.7   0.164244192   1.39331   0.93129   0.65226  -0.31712
  22   34444.3    290.3   0.045970578   0.43938   0.50364   0.41270  -0.12410
  23   36089.5    277.1   0.070055887   0.63906  -0.13198  -0.52176  -0.59110
  24   36127.0    276.8   0.079110882   0.72091  -0.10483   0.68592  -0.48932
  25   37081.3    269.7   0.046320281   0.41124  -0.46021   0.13743   0.42492
  26   38096.3    262.5   0.131656675   1.13772  -0.99845  -0.33131   0.17621
  27   35666.6    280.4   0.102608858   0.94711   0.07977   0.86146  -0.44569
  28   39636.5    252.3   0.039297866   0.32640  -0.44485   0.09318   0.34616
  29   36902.6    271.0   0.078218339   0.69779   0.72629   0.34596  -0.22496
  30   29786.3    335.7   0.007830132   0.08654  -0.00167  -0.29141   0.04023
  31   28722.8    348.2   0.005574886   0.06390  -0.18008   0.02528   0.17559
  32   30351.9    329.5   0.006370698   0.06910  -0.15008   0.04201  -0.21169
  33   32541.4    307.3   0.011016931   0.11146   0.14934   0.22234  -0.19929
  34   31059.4    322.0   0.070242005   0.74453   0.01182   0.12155   0.85417
  35   36675.0    272.7   0.084167223   0.75552   0.03713   0.64614  -0.58021
  36   42832.7    233.5   0.025748365   0.19790  -0.13083  -0.30313  -0.29816
  37   38558.5    259.3   0.111440584   0.95148   0.65253  -0.05459  -0.72298
  38   36950.5    270.6   0.130893303   1.16620   0.24820   0.92782  -0.49371
  39   37136.7    269.3   0.017205736   0.15253   0.11046   0.24465   0.28367
  40   41358.7    241.8   0.154808508   1.23226  -0.30913   1.03589   0.25224

FINAL SINGLE POINT ENERGY     -3586.662561252639

DIPOLE MOMENT
-------------
                                X             Y             Z
Electronic contribution:      1.41291      -3.98356       1.65683
Nuclear contribution   :     -3.55560      12.47427      -3.63977
                        -----------------------------------------
Total Dipole Moment    :     -2.14269       8.49071      -1.98294
                        -----------------------------------------
Magnitude (a.u.)       :      8.97860
Magnitude (Debye)      :     22.82179

Rotational constants in cm-1:     0.002355     0.001850     0.001763
Rotational constants in MHz :    70.590597    55.472984    52.857218

                             ****ORCA TERMINATED NORMALLY****
TOTAL RUN TIME: 0 days 3 hours 41 minutes 50 seconds 989 msec
