                         Program Version 5.0.4 -  RELEASE  -
|  1> %maxcore 6000
|  2> %pal
|  3>  nprocs 8
|  4> end
|  5> ! RI-wB2PLYP def2-SVP def2/J def2-SVP/C RIJCOSX CPCM TIGHTSCF
|  6>
|  7> %TDDFT
|  8>     DCORR      1
|  9>     NROOTS    40
| 10>     TDA       FALSE
| 11> END
| 12>
| 13> %CPCM
| 14>     SMD		TRUE
| 15>     SMDsolvent	"Acetonitrile"
| 16> END
| 17>
| 18> * xyz 2 1
| 19> Fe                 -0.18443400    1.05691900   -0.14483500
| 20> N                  -0.45141900    2.99521900   -0.51342800
| 21> C                   0.48875800    3.80074400    0.05491000
| 22> C                  -1.38066200    3.55541600   -1.29519600
| 23> C                   0.49530100    5.18331200   -0.12762900
| 24> C                  -1.43442300    4.92992000   -1.52113800
| 25> H                  -2.10511800    2.88586000   -1.76305900
| 26> C                  -0.48754000    5.75915300   -0.92641900
| 27> H                   1.27031500    5.78119000    0.35371800
| 28> H                  -2.21816900    5.33257700   -2.16348500
| 29> H                  -0.51008600    6.83790200   -1.08791400
| 30> C                   1.46140400    3.09144700    0.84730000
| 31> H                   2.26188000    3.62966500    1.36849700
| 32> N                   1.33638300    1.80241100    0.91333600
| 33> C                   2.29050700    1.04157900    1.62714400
| 34> C                   3.66315200    1.17422700    1.37216200
| 35> C                   1.84596700    0.10026600    2.55565900
| 36> C                   4.57942500    0.34976700    2.02358400
| 37> H                   4.00823500    1.90821400    0.63949100
| 38> C                   2.78161900   -0.70471400    3.19014400
| 39> H                   0.79323300    0.01225100    2.81133700
| 40> C                   4.14862900   -0.60608500    2.93808700
| 41> H                   5.64353000    0.44781300    1.80260000
| 42> N                  -1.32476600    0.96618500    1.48234400
| 43> C                  -1.56743300   -0.30234200    1.92027300
| 44> C                  -1.88841100    1.98586900    2.13884100
| 45> C                  -2.40609600   -0.57017800    3.00180400
| 46> C                  -2.73129700    1.79150000    3.23227200
| 47> H                  -1.67211800    2.99266600    1.77372800
| 48> C                  -3.00388100    0.49664000    3.66607600
| 49> H                  -2.56573800   -1.60472800    3.30990800
| 50> H                  -3.16668900    2.65900500    3.72905200
| 51> H                  -3.66535200    0.32094800    4.51580900
| 52> C                  -0.83074800   -1.31854000    1.20957900
| 53> H                  -0.94168900   -2.37678500    1.47707100
| 54> N                   0.00242500   -0.90857900    0.30272500
| 55> C                   0.74312000   -1.84156600   -0.45301400
| 56> C                   0.16280000   -3.02118600   -0.94520500
| 57> C                   2.07480200   -1.54682700   -0.75558600
| 58> C                   0.90955800   -3.89002200   -1.73903400
| 59> H                  -0.88144700   -3.24938600   -0.71859400
| 60> C                   2.79383000   -2.43305900   -1.54491200
| 61> H                   2.55060700   -0.64546000   -0.37385200
| 62> C                   2.23523100   -3.60471600   -2.05217800
| 63> H                   0.44563600   -4.79854300   -2.12629700
| 64> N                   0.83205700    0.94835200   -1.87323100
| 65> C                   0.11165600    0.42715100   -2.90407500
| 66> C                   2.09989500    1.30326000   -2.10579400
| 67> C                   0.65934300    0.21892800   -4.16979000
| 68> C                   2.71247000    1.12976100   -3.34628600
| 69> H                   2.66106500    1.72529200   -1.26965400
| 70> C                   1.98705400    0.57062300   -4.39383600
| 71> H                   0.03699600   -0.21223300   -4.95508700
| 72> H                   3.75460800    1.42569400   -3.46974400
| 73> H                   2.44566000    0.41557400   -5.37159700
| 74> C                  -1.25175700    0.10325400   -2.56596800
| 75> H                  -1.91300000   -0.36390500   -3.30588600
| 76> N                  -1.64885600    0.39203400   -1.36688900
| 77> C                  -2.92569200   -0.03281600   -0.93609500
| 78> C                  -3.29648600   -1.36885900   -1.10259900
| 79> C                  -3.78790200    0.85562200   -0.27673900
| 80> C                  -4.52099200   -1.78828600   -0.59274400
| 81> H                  -2.63646600   -2.07682600   -1.60392200
| 82> C                  -5.01494900    0.41039800    0.20515400
| 83> H                  -3.49553800    1.89953200   -0.15310500
| 84> C                  -5.39321500   -0.92306900    0.06080400
| 85> H                  -5.68270600    1.11084100    0.70969600
| 86> N                  -4.88931900   -3.20264000   -0.74284500
| 87> O                  -4.06604900   -3.95513900   -1.24191100
| 88> O                  -5.99573500   -3.54547600   -0.35890600
| 89> N                   4.18572600   -2.09597100   -1.87387400
| 90> O                   4.81965600   -2.89403200   -2.54485300
| 91> O                   4.62763200   -1.03328300   -1.46161300
| 92> N                   2.29398000   -1.70752800    4.14661900
| 93> O                   1.08469700   -1.85819300    4.24595200
| 94> O                   3.12335800   -2.33819500    4.78123300
| 95> H                  -6.34131600   -1.29407200    0.44900700
| 96> H                   2.83073200   -4.26658500   -2.68016200
| 97> H                   4.84804100   -1.26766800    3.44830100
| 98> *
| 99>
|100>                          ****END OF INPUT****

CARTESIAN COORDINATES (ANGSTROEM)
---------------------------------
  Fe    -0.184434    1.056919   -0.144835
  N     -0.451419    2.995219   -0.513428
  C      0.488758    3.800744    0.054910
  C     -1.380662    3.555416   -1.295196
  C      0.495301    5.183312   -0.127629
  C     -1.434423    4.929920   -1.521138
  H     -2.105118    2.885860   -1.763059
  C     -0.487540    5.759153   -0.926419
  H      1.270315    5.781190    0.353718
  H     -2.218169    5.332577   -2.163485
  H     -0.510086    6.837902   -1.087914
  C      1.461404    3.091447    0.847300
  H      2.261880    3.629665    1.368497
  N      1.336383    1.802411    0.913336
  C      2.290507    1.041579    1.627144
  C      3.663152    1.174227    1.372162
  C      1.845967    0.100266    2.555659
  C      4.579425    0.349767    2.023584
  H      4.008235    1.908214    0.639491
  C      2.781619   -0.704714    3.190144
  H      0.793233    0.012251    2.811337
  C      4.148629   -0.606085    2.938087
  H      5.643530    0.447813    1.802600
  N     -1.324766    0.966185    1.482344
  C     -1.567433   -0.302342    1.920273
  C     -1.888411    1.985869    2.138841
  C     -2.406096   -0.570178    3.001804
  C     -2.731297    1.791500    3.232272
  H     -1.672118    2.992666    1.773728
  C     -3.003881    0.496640    3.666076
  H     -2.565738   -1.604728    3.309908
  H     -3.166689    2.659005    3.729052
  H     -3.665352    0.320948    4.515809
  C     -0.830748   -1.318540    1.209579
  H     -0.941689   -2.376785    1.477071
  N      0.002425   -0.908579    0.302725
  C      0.743120   -1.841566   -0.453014
  C      0.162800   -3.021186   -0.945205
  C      2.074802   -1.546827   -0.755586
  C      0.909558   -3.890022   -1.739034
  H     -0.881447   -3.249386   -0.718594
  C      2.793830   -2.433059   -1.544912
  H      2.550607   -0.645460   -0.373852
  C      2.235231   -3.604716   -2.052178
  H      0.445636   -4.798543   -2.126297
  N      0.832057    0.948352   -1.873231
  C      0.111656    0.427151   -2.904075
  C      2.099895    1.303260   -2.105794
  C      0.659343    0.218928   -4.169790
  C      2.712470    1.129761   -3.346286
  H      2.661065    1.725292   -1.269654
  C      1.987054    0.570623   -4.393836
  H      0.036996   -0.212233   -4.955087
  H      3.754608    1.425694   -3.469744
  H      2.445660    0.415574   -5.371597
  C     -1.251757    0.103254   -2.565968
  H     -1.913000   -0.363905   -3.305886
  N     -1.648856    0.392034   -1.366889
  C     -2.925692   -0.032816   -0.936095
  C     -3.296486   -1.368859   -1.102599
  C     -3.787902    0.855622   -0.276739
  C     -4.520992   -1.788286   -0.592744
  H     -2.636466   -2.076826   -1.603922
  C     -5.014949    0.410398    0.205154
  H     -3.495538    1.899532   -0.153105
  C     -5.393215   -0.923069    0.060804
  H     -5.682706    1.110841    0.709696
  N     -4.889319   -3.202640   -0.742845
  O     -4.066049   -3.955139   -1.241911
  O     -5.995735   -3.545476   -0.358906
  N      4.185726   -2.095971   -1.873874
  O      4.819656   -2.894032   -2.544853
  O      4.627632   -1.033283   -1.461613
  N      2.293980   -1.707528    4.146619
  O      1.084697   -1.858193    4.245952
  O      3.123358   -2.338195    4.781233
  H     -6.341316   -1.294072    0.449007
  H      2.830732   -4.266585   -2.680162
  H      4.848041   -1.267668    3.448301

 Total Charge           Charge          ....    2
 Multiplicity           Mult            ....    1
 Number of Electrons    NEL             ....  378
 Basis Dimension        Dim             ....  880

ORBITAL ENERGIES
----------------

  NO   OCC          E(Eh)            E(eV)
   0   2.0000    -258.339921     -7029.7866
   1   2.0000     -30.877566      -840.2213
   2   2.0000     -26.590734      -723.5706
   3   2.0000     -26.590387      -723.5612
   4   2.0000     -26.588340      -723.5055
   5   2.0000     -19.850933      -540.1713
   6   2.0000     -19.850352      -540.1555
   7   2.0000     -19.850142      -540.1498
   8   2.0000     -19.850081      -540.1482
   9   2.0000     -19.849829      -540.1413
  10   2.0000     -19.849554      -540.1338
  11   2.0000     -15.192065      -413.3971
  12   2.0000     -15.191437      -413.3800
  13   2.0000     -15.191389      -413.3787
  14   2.0000     -14.978718      -407.5916
  15   2.0000     -14.978319      -407.5808
  16   2.0000     -14.977564      -407.5602
  17   2.0000     -14.976833      -407.5404
  18   2.0000     -14.976828      -407.5402
  19   2.0000     -14.976200      -407.5231
  20   2.0000     -10.794292      -293.7276
  21   2.0000     -10.794011      -293.7200
  22   2.0000     -10.793710      -293.7118
  23   2.0000     -10.776661      -293.2479
  24   2.0000     -10.775554      -293.2177
  25   2.0000     -10.775132      -293.2063
  26   2.0000     -10.773033      -293.1491
  27   2.0000     -10.772575      -293.1367
  28   2.0000     -10.772073      -293.1230
  29   2.0000     -10.768813      -293.0343
  30   2.0000     -10.768490      -293.0255
  31   2.0000     -10.767954      -293.0109
  32   2.0000     -10.767623      -293.0019
  33   2.0000     -10.767613      -293.0016
  34   2.0000     -10.767509      -292.9988
  35   2.0000     -10.741861      -292.3009
  36   2.0000     -10.740981      -292.2770
  37   2.0000     -10.740847      -292.2733
  38   2.0000     -10.738461      -292.2084
  39   2.0000     -10.738293      -292.2038
  40   2.0000     -10.737898      -292.1930
  41   2.0000     -10.737415      -292.1799
  42   2.0000     -10.737159      -292.1730
  43   2.0000     -10.736941      -292.1670
  44   2.0000     -10.735171      -292.1189
  45   2.0000     -10.734210      -292.0927
  46   2.0000     -10.734206      -292.0926
  47   2.0000     -10.733140      -292.0636
  48   2.0000     -10.732651      -292.0503
  49   2.0000     -10.731865      -292.0289
  50   2.0000     -10.731633      -292.0226
  51   2.0000     -10.731092      -292.0079
  52   2.0000     -10.730784      -291.9995
  53   2.0000     -10.725810      -291.8641
  54   2.0000     -10.725678      -291.8605
  55   2.0000     -10.724949      -291.8407
  56   2.0000      -3.779626      -102.8488
  57   2.0000      -2.474180       -67.3259
  58   2.0000      -2.472588       -67.2825
  59   2.0000      -2.467568       -67.1459
  60   2.0000      -1.478123       -40.2218
  61   2.0000      -1.477552       -40.2062
  62   2.0000      -1.477372       -40.2013
  63   2.0000      -1.285290       -34.9745
  64   2.0000      -1.284622       -34.9563
  65   2.0000      -1.284533       -34.9539
  66   2.0000      -1.219643       -33.1882
  67   2.0000      -1.209204       -32.9041
  68   2.0000      -1.207392       -32.8548
  69   2.0000      -1.176304       -32.0089
  70   2.0000      -1.175563       -31.9887
  71   2.0000      -1.174181       -31.9511
  72   2.0000      -1.098191       -29.8833
  73   2.0000      -1.097599       -29.8672
  74   2.0000      -1.097103       -29.8537
  75   2.0000      -1.027057       -27.9477
  76   2.0000      -1.025790       -27.9132
  77   2.0000      -1.024254       -27.8714
  78   2.0000      -1.017492       -27.6874
  79   2.0000      -1.016532       -27.6612
  80   2.0000      -1.015968       -27.6459
  81   2.0000      -0.995327       -27.0842
  82   2.0000      -0.995147       -27.0793
  83   2.0000      -0.994761       -27.0688
  84   2.0000      -0.960060       -26.1246
  85   2.0000      -0.959120       -26.0990
  86   2.0000      -0.956407       -26.0252
  87   2.0000      -0.894054       -24.3284
  88   2.0000      -0.890145       -24.2221
  89   2.0000      -0.889185       -24.1960
  90   2.0000      -0.875664       -23.8280
  91   2.0000      -0.873361       -23.7653
  92   2.0000      -0.871934       -23.7265
  93   2.0000      -0.834677       -22.7127
  94   2.0000      -0.834228       -22.7005
  95   2.0000      -0.833761       -22.6878
  96   2.0000      -0.810907       -22.0659
  97   2.0000      -0.806166       -21.9369
  98   2.0000      -0.804950       -21.9038
  99   2.0000      -0.789977       -21.4964
 100   2.0000      -0.788278       -21.4501
 101   2.0000      -0.776798       -21.1378
 102   2.0000      -0.757823       -20.6214
 103   2.0000      -0.754828       -20.5399
 104   2.0000      -0.754085       -20.5197
 105   2.0000      -0.735858       -20.0237
 106   2.0000      -0.734040       -19.9742
 107   2.0000      -0.733207       -19.9516
 108   2.0000      -0.724016       -19.7015
 109   2.0000      -0.710405       -19.3311
 110   2.0000      -0.709155       -19.2971
 111   2.0000      -0.708906       -19.2903
 112   2.0000      -0.707537       -19.2531
 113   2.0000      -0.706008       -19.2114
 114   2.0000      -0.692485       -18.8435
 115   2.0000      -0.690004       -18.7760
 116   2.0000      -0.689167       -18.7532
 117   2.0000      -0.677208       -18.4278
 118   2.0000      -0.672793       -18.3076
 119   2.0000      -0.672522       -18.3002
 120   2.0000      -0.666560       -18.1380
 121   2.0000      -0.666063       -18.1245
 122   2.0000      -0.661838       -18.0095
 123   2.0000      -0.651923       -17.7397
 124   2.0000      -0.649847       -17.6832
 125   2.0000      -0.648869       -17.6566
 126   2.0000      -0.642234       -17.4761
 127   2.0000      -0.639593       -17.4042
 128   2.0000      -0.637742       -17.3538
 129   2.0000      -0.634923       -17.2771
 130   2.0000      -0.633791       -17.2463
 131   2.0000      -0.627949       -17.0874
 132   2.0000      -0.614833       -16.7305
 133   2.0000      -0.609775       -16.5928
 134   2.0000      -0.606331       -16.4991
 135   2.0000      -0.604564       -16.4510
 136   2.0000      -0.601619       -16.3709
 137   2.0000      -0.596824       -16.2404
 138   2.0000      -0.595219       -16.1967
 139   2.0000      -0.590622       -16.0716
 140   2.0000      -0.584837       -15.9142
 141   2.0000      -0.580154       -15.7868
 142   2.0000      -0.573043       -15.5933
 143   2.0000      -0.566525       -15.4159
 144   2.0000      -0.552919       -15.0457
 145   2.0000      -0.547109       -14.8876
 146   2.0000      -0.542592       -14.7647
 147   2.0000      -0.535485       -14.5713
 148   2.0000      -0.533149       -14.5077
 149   2.0000      -0.532102       -14.4792
 150   2.0000      -0.530132       -14.4256
 151   2.0000      -0.529743       -14.4150
 152   2.0000      -0.525160       -14.2903
 153   2.0000      -0.524683       -14.2774
 154   2.0000      -0.523145       -14.2355
 155   2.0000      -0.516106       -14.0440
 156   2.0000      -0.510222       -13.8839
 157   2.0000      -0.504756       -13.7351
 158   2.0000      -0.501230       -13.6392
 159   2.0000      -0.489358       -13.3161
 160   2.0000      -0.485376       -13.2077
 161   2.0000      -0.481776       -13.1098
 162   2.0000      -0.477413       -12.9911
 163   2.0000      -0.471705       -12.8357
 164   2.0000      -0.471693       -12.8354
 165   2.0000      -0.470154       -12.7935
 166   2.0000      -0.469434       -12.7739
 167   2.0000      -0.464992       -12.6531
 168   2.0000      -0.462021       -12.5722
 169   2.0000      -0.461165       -12.5489
 170   2.0000      -0.460490       -12.5306
 171   2.0000      -0.450486       -12.2584
 172   2.0000      -0.450007       -12.2453
 173   2.0000      -0.449551       -12.2329
 174   2.0000      -0.447794       -12.1851
 175   2.0000      -0.433589       -11.7986
 176   2.0000      -0.414519       -11.2796
 177   2.0000      -0.411009       -11.1841
 178   2.0000      -0.398265       -10.8374
 179   2.0000      -0.396799       -10.7975
 180   2.0000      -0.391355       -10.6493
 181   2.0000      -0.388176       -10.5628
 182   2.0000      -0.386804       -10.5255
 183   2.0000      -0.383921       -10.4470
 184   2.0000      -0.382403       -10.4057
 185   2.0000      -0.380550       -10.3553
 186   2.0000      -0.355345        -9.6694
 187   2.0000      -0.353094        -9.6082
 188   2.0000      -0.349266        -9.5040
 189   0.0000      -0.018474        -0.5027
 190   0.0000      -0.014083        -0.3832
 191   0.0000      -0.012755        -0.3471
 192   0.0000      -0.001325        -0.0361
 193   0.0000       0.001340         0.0365

MULLIKEN ATOMIC CHARGES
-----------------------
   0 Fe:    0.770867
   1 N :   -0.340129
   2 C :    0.088514
   3 C :    0.142520
   4 C :   -0.002246
   5 C :   -0.048894
   6 H :    0.100866
   7 C :    0.060136
   8 H :    0.078744
   9 H :    0.082770
  10 H :    0.086972
  11 C :    0.221274
  12 H :    0.109298
  13 N :   -0.335247
  14 C :    0.090408
  15 C :    0.021556
  16 C :    0.008824
  17 C :   -0.038039
  18 H :    0.077907
  19 C :    0.129626
  20 H :    0.057401
  21 C :   -0.011928
  22 H :    0.071941
  23 N :   -0.336893
  24 C :    0.075060
  25 C :    0.136500
  26 C :    0.010811
  27 C :   -0.042925
  28 H :    0.101314
  29 C :    0.056867
  30 H :    0.077788
  31 H :    0.082661
  32 H :    0.087941
  33 C :    0.193271
  34 H :    0.107929
  35 N :   -0.316374
  36 C :    0.111949
  37 C :    0.012978
  38 C :   -0.011814
  39 C :   -0.040642
  40 H :    0.067202
  41 C :    0.138031
  42 H :    0.071170
  43 C :   -0.012857
  44 H :    0.072296
  45 N :   -0.329551
  46 C :    0.086706
  47 C :    0.133765
  48 C :   -0.002285
  49 C :   -0.042056
  50 H :    0.088579
  51 C :    0.058452
  52 H :    0.078521
  53 H :    0.078513
  54 H :    0.086572
  55 C :    0.232807
  56 H :    0.109005
  57 N :   -0.328878
  58 C :    0.084491
  59 C :   -0.007671
  60 C :    0.025653
  61 C :    0.131823
  62 H :    0.075369
  63 C :   -0.040711
  64 H :    0.069254
  65 C :   -0.008535
  66 H :    0.071434
  67 N :    0.288525
  68 O :   -0.302602
  69 O :   -0.298502
  70 N :    0.288610
  71 O :   -0.298211
  72 O :   -0.299282
  73 N :    0.289254
  74 O :   -0.303681
  75 O :   -0.296512
  76 H :    0.072096
  77 H :    0.071069
  78 H :    0.072581
Sum of atomic charges:    2.0000000

LOEWDIN ATOMIC CHARGES
----------------------
   0 Fe:    0.112485
   1 N :    0.002771
   2 C :    0.009823
   3 C :    0.078624
   4 C :    0.006157
   5 C :   -0.013685
   6 H :    0.050134
   7 C :    0.041619
   8 H :    0.065759
   9 H :    0.062171
  10 H :    0.063353
  11 C :    0.158835
  12 H :    0.066896
  13 N :   -0.006271
  14 C :    0.009683
  15 C :    0.008037
  16 C :    0.004795
  17 C :   -0.009104
  18 H :    0.059418
  19 C :   -0.025977
  20 H :    0.051497
  21 C :    0.006640
  22 H :    0.057126
  23 N :   -0.000442
  24 C :    0.001528
  25 C :    0.081322
  26 C :    0.008412
  27 C :   -0.013201
  28 H :    0.052068
  29 C :    0.044069
  30 H :    0.066296
  31 H :    0.062410
  32 H :    0.063872
  33 C :    0.146624
  34 H :    0.065750
  35 N :   -0.009562
  36 C :    0.007769
  37 C :    0.009146
  38 C :    0.008288
  39 C :   -0.013154
  40 H :    0.056713
  41 C :   -0.027928
  42 H :    0.053068
  43 C :    0.007971
  44 H :    0.057011
  45 N :   -0.000459
  46 C :    0.008885
  47 C :    0.077188
  48 C :    0.006432
  49 C :   -0.013167
  50 H :    0.047310
  51 C :    0.041634
  52 H :    0.065733
  53 H :    0.061082
  54 H :    0.063349
  55 C :    0.158983
  56 H :    0.066598
  57 N :   -0.010637
  58 C :    0.006941
  59 C :    0.001622
  60 C :    0.013168
  61 C :   -0.028773
  62 H :    0.059093
  63 C :   -0.011998
  64 H :    0.056629
  65 C :    0.009603
  66 H :    0.056714
  67 N :    0.330110
  68 O :   -0.252449
  69 O :   -0.246529
  70 N :    0.330646
  71 O :   -0.245913
  72 O :   -0.249533
  73 N :    0.330684
  74 O :   -0.253729
  75 O :   -0.244207
  76 H :    0.058855
  77 H :    0.058424
  78 H :    0.058893

  Mayer bond orders larger than 0.100000
B(  0-Fe,  1-N ) :   0.4255 B(  0-Fe, 13-N ) :   0.4241 B(  0-Fe, 23-N ) :   0.4215
B(  0-Fe, 35-N ) :   0.4131 B(  0-Fe, 45-N ) :   0.4215 B(  0-Fe, 57-N ) :   0.4151
B(  1-N ,  2-C ) :   1.2865 B(  1-N ,  3-C ) :   1.4105 B(  2-C ,  4-C ) :   1.4293
B(  2-C , 11-C ) :   1.0405 B(  3-C ,  5-C ) :   1.3953 B(  3-C ,  6-H ) :   0.9602
B(  4-C ,  7-C ) :   1.3686 B(  4-C ,  8-H ) :   0.9847 B(  5-C ,  7-C ) :   1.4248
B(  5-C ,  9-H ) :   0.9831 B(  7-C , 10-H ) :   0.9846 B( 11-C , 12-H ) :   0.9742
B( 11-C , 13-N ) :   1.7416 B( 13-N , 14-C ) :   0.9515 B( 14-C , 15-C ) :   1.4033
B( 14-C , 16-C ) :   1.3812 B( 15-C , 17-C ) :   1.3774 B( 15-C , 18-H ) :   0.9913
B( 16-C , 19-C ) :   1.3916 B( 16-C , 20-H ) :   0.9850 B( 17-C , 21-C ) :   1.3890
B( 17-C , 22-H ) :   0.9900 B( 19-C , 21-C ) :   1.3793 B( 19-C , 73-N ) :   0.8480
B( 21-C , 78-H ) :   0.9929 B( 23-N , 24-C ) :   1.2851 B( 23-N , 25-C ) :   1.4094
B( 24-C , 26-C ) :   1.4318 B( 24-C , 33-C ) :   1.0411 B( 25-C , 27-C ) :   1.3924
B( 25-C , 28-H ) :   0.9644 B( 26-C , 29-C ) :   1.3607 B( 26-C , 30-H ) :   0.9862
B( 27-C , 29-C ) :   1.4202 B( 27-C , 31-H ) :   0.9853 B( 29-C , 32-H ) :   0.9851
B( 33-C , 34-H ) :   0.9761 B( 33-C , 35-N ) :   1.7226 B( 35-N , 36-C ) :   0.9705
B( 36-C , 37-C ) :   1.3918 B( 36-C , 38-C ) :   1.3769 B( 37-C , 39-C ) :   1.3815
B( 37-C , 40-H ) :   0.9896 B( 38-C , 41-C ) :   1.3911 B( 38-C , 42-H ) :   0.9801
B( 39-C , 43-C ) :   1.3867 B( 39-C , 44-H ) :   0.9893 B( 41-C , 43-C ) :   1.3799
B( 41-C , 70-N ) :   0.8481 B( 43-C , 77-H ) :   0.9931 B( 45-N , 46-C ) :   1.2891
B( 45-N , 47-C ) :   1.4114 B( 46-C , 48-C ) :   1.4270 B( 46-C , 55-C ) :   1.0444
B( 47-C , 49-C ) :   1.3993 B( 47-C , 50-H ) :   0.9653 B( 48-C , 51-C ) :   1.3644
B( 48-C , 52-H ) :   0.9853 B( 49-C , 51-C ) :   1.4190 B( 49-C , 53-H ) :   0.9859
B( 51-C , 54-H ) :   0.9856 B( 55-C , 56-H ) :   0.9710 B( 55-C , 57-N ) :   1.7320
B( 57-N , 58-C ) :   0.9551 B( 58-C , 59-C ) :   1.3971 B( 58-C , 60-C ) :   1.3818
B( 59-C , 61-C ) :   1.3568 B( 59-C , 62-H ) :   0.9851 B( 60-C , 63-C ) :   1.4047
B( 60-C , 64-H ) :   0.9888 B( 61-C , 65-C ) :   1.4013 B( 61-C , 67-N ) :   0.8480
B( 63-C , 65-C ) :   1.3664 B( 63-C , 66-H ) :   0.9895 B( 65-C , 76-H ) :   0.9924
B( 67-N , 68-O ) :   1.5479 B( 67-N , 69-O ) :   1.5594 B( 68-O , 69-O ) :   0.2288
B( 70-N , 71-O ) :   1.5594 B( 70-N , 72-O ) :   1.5436 B( 71-O , 72-O ) :   0.2281
B( 73-N , 74-O ) :   1.5420 B( 73-N , 75-O ) :   1.5616 B( 74-O , 75-O ) :   0.2290

MP2 TOTAL ENERGY:    -3588.504786144 Eh

-----------------------------------------------------------------------------
         ABSORPTION SPECTRUM VIA TRANSITION ELECTRIC DIPOLE MOMENTS
-----------------------------------------------------------------------------
State   Energy    Wavelength  fosc         T2        TX        TY        TZ
        (cm-1)      (nm)                 (au**2)    (au)      (au)      (au)
-----------------------------------------------------------------------------
   1   15542.4    643.4   0.000027120   0.00057   0.02171  -0.00306  -0.00969
   2   15968.7    626.2   0.000014413   0.00030  -0.01650  -0.00116   0.00485
   3   16663.7    600.1   0.000061981   0.00122   0.03252  -0.00280  -0.01262
   4   25157.9    397.5   0.000071982   0.00094   0.00691   0.00641  -0.02921
   5   25688.8    389.3   0.000101091   0.00130  -0.02399  -0.02634  -0.00515
   6   26770.1    373.6   0.000017227   0.00021   0.00331  -0.00888   0.01105
   7   33120.7    301.9   0.068454453   0.68042   0.38366  -0.43704  -0.58500
   8   33088.3    302.2   0.042047797   0.41835  -0.30688   0.26103   0.50601
   9   33012.0    302.9   0.000388254   0.00387   0.01341   0.05977   0.01095
  10   33343.9    299.9   0.212590465   2.09895  -0.63017   0.68229   1.11190
  11   34572.2    289.3   0.434224930   4.13489   0.82589   1.05394  -1.53036
  12   34436.6    290.4   0.714155024   6.82729  -2.19266   1.41371   0.14474
  13   37389.7    267.5   0.000751573   0.00662   0.05825  -0.05664   0.00394
  14   37436.0    267.1   0.000447827   0.00394  -0.05762  -0.01622  -0.01883
  15   37461.6    266.9   0.000037968   0.00033  -0.00196  -0.01565   0.00921
  16   37749.8    264.9   0.029505374   0.25731  -0.39391  -0.31809  -0.03113
  17   37873.9    264.0   0.051796418   0.45023   0.51932  -0.38110  -0.18788
  18   38201.2    261.8   0.026173351   0.22556  -0.47022  -0.06575   0.01120
  19   29327.9    341.0   0.024151537   0.27111  -0.22855  -0.25502   0.39222
  20   34779.5    287.5   0.004704927   0.04454   0.06071  -0.04499  -0.19704
  21   33172.7    301.5   0.053102035   0.52699   0.05893  -0.68446   0.23459
  22   36990.6    270.3   0.039076597   0.34778  -0.16662   0.52229   0.21733
  23   38630.9    258.9   0.098778201   0.84179   0.83263   0.37692   0.08027
  24   35185.3    284.2   0.022621078   0.21165   0.06399   0.12571   0.43790
  25   34120.8    293.1   0.124636297   1.20254   0.66818   0.63273  -0.59642
  26   33019.5    302.9   0.080790188   0.80550   0.48166   0.37814   0.65613
  27   36329.5    275.3   0.091293590   0.82729   0.33682  -0.81719  -0.21459
  28   33550.2    298.1   0.012879598   0.12638  -0.00713  -0.35445  -0.02633
  29   35234.0    283.8   0.031964760   0.29867  -0.49182   0.06450   0.22940
  30   38941.2    256.8   0.222835609   1.88387   0.26087   1.03976  -0.85715
  31   34820.1    287.2   0.103436498   0.97796   0.90310   0.30475  -0.26361
  32   37825.9    264.4   0.008348906   0.07266   0.19113   0.10318  -0.15965
  33   31860.9    313.9   0.032065691   0.33133  -0.34964  -0.20737  -0.40752
  34   37545.3    266.3   0.052693125   0.46203  -0.40823   0.24136  -0.48696
  35   35930.1    278.3   0.077962784   0.71434   0.21491  -0.22855  -0.78480
  36   40369.7    247.7   0.064017633   0.52206  -0.40345   0.59931  -0.01104
  37   39703.6    251.9   0.133304000   1.10532  -0.49643  -0.79745   0.47218
  38   40726.0    245.5   0.148337592   1.19910   0.89197   0.30491  -0.55724
  39   43933.2    227.6   0.014370886   0.10769   0.02171  -0.17961  -0.27378
  40   46746.6    213.9   0.049853398   0.35109  -0.40173  -0.43449   0.03040

FINAL SINGLE POINT ENERGY     -3586.124363593252

DIPOLE MOMENT
-------------
                                X             Y             Z
Electronic contribution:      1.34639      -4.17406       1.81761
Nuclear contribution   :     -3.36808      12.51579      -3.91256
                        -----------------------------------------
Total Dipole Moment    :     -2.02168       8.34173      -2.09495
                        -----------------------------------------
Magnitude (a.u.)       :      8.83519
Magnitude (Debye)      :     22.45726

Rotational constants in cm-1:     0.002342     0.001850     0.001765
Rotational constants in MHz :    70.207339    55.448862    52.928199

                             ****ORCA TERMINATED NORMALLY****
TOTAL RUN TIME: 0 days 3 hours 43 minutes 55 seconds 420 msec
