                         Program Version 5.0.4 -  RELEASE  -
|  1> %maxcore 6000
|  2> %pal
|  3>  nprocs 8
|  4> end
|  5> ! RI-SCS-PBE-QIDH def2-SVP def2/J def2-SVP/C RIJCOSX CPCM TIGHTSCF
|  6>
|  7> %TDDFT
|  8>     DCORR      4
|  9>     NROOTS    40
| 10>     doscs true
| 11>     TDA       FALSE
| 12> END
| 13>
| 14> %CPCM
| 15>     SMD		TRUE
| 16>     SMDsolvent	"Acetonitrile"
| 17> END
| 18>
| 19> * xyz 2 1
| 20> Fe                 -0.18443400    1.05691900   -0.14483500
| 21> N                  -0.45141900    2.99521900   -0.51342800
| 22> C                   0.48875800    3.80074400    0.05491000
| 23> C                  -1.38066200    3.55541600   -1.29519600
| 24> C                   0.49530100    5.18331200   -0.12762900
| 25> C                  -1.43442300    4.92992000   -1.52113800
| 26> H                  -2.10511800    2.88586000   -1.76305900
| 27> C                  -0.48754000    5.75915300   -0.92641900
| 28> H                   1.27031500    5.78119000    0.35371800
| 29> H                  -2.21816900    5.33257700   -2.16348500
| 30> H                  -0.51008600    6.83790200   -1.08791400
| 31> C                   1.46140400    3.09144700    0.84730000
| 32> H                   2.26188000    3.62966500    1.36849700
| 33> N                   1.33638300    1.80241100    0.91333600
| 34> C                   2.29050700    1.04157900    1.62714400
| 35> C                   3.66315200    1.17422700    1.37216200
| 36> C                   1.84596700    0.10026600    2.55565900
| 37> C                   4.57942500    0.34976700    2.02358400
| 38> H                   4.00823500    1.90821400    0.63949100
| 39> C                   2.78161900   -0.70471400    3.19014400
| 40> H                   0.79323300    0.01225100    2.81133700
| 41> C                   4.14862900   -0.60608500    2.93808700
| 42> H                   5.64353000    0.44781300    1.80260000
| 43> N                  -1.32476600    0.96618500    1.48234400
| 44> C                  -1.56743300   -0.30234200    1.92027300
| 45> C                  -1.88841100    1.98586900    2.13884100
| 46> C                  -2.40609600   -0.57017800    3.00180400
| 47> C                  -2.73129700    1.79150000    3.23227200
| 48> H                  -1.67211800    2.99266600    1.77372800
| 49> C                  -3.00388100    0.49664000    3.66607600
| 50> H                  -2.56573800   -1.60472800    3.30990800
| 51> H                  -3.16668900    2.65900500    3.72905200
| 52> H                  -3.66535200    0.32094800    4.51580900
| 53> C                  -0.83074800   -1.31854000    1.20957900
| 54> H                  -0.94168900   -2.37678500    1.47707100
| 55> N                   0.00242500   -0.90857900    0.30272500
| 56> C                   0.74312000   -1.84156600   -0.45301400
| 57> C                   0.16280000   -3.02118600   -0.94520500
| 58> C                   2.07480200   -1.54682700   -0.75558600
| 59> C                   0.90955800   -3.89002200   -1.73903400
| 60> H                  -0.88144700   -3.24938600   -0.71859400
| 61> C                   2.79383000   -2.43305900   -1.54491200
| 62> H                   2.55060700   -0.64546000   -0.37385200
| 63> C                   2.23523100   -3.60471600   -2.05217800
| 64> H                   0.44563600   -4.79854300   -2.12629700
| 65> N                   0.83205700    0.94835200   -1.87323100
| 66> C                   0.11165600    0.42715100   -2.90407500
| 67> C                   2.09989500    1.30326000   -2.10579400
| 68> C                   0.65934300    0.21892800   -4.16979000
| 69> C                   2.71247000    1.12976100   -3.34628600
| 70> H                   2.66106500    1.72529200   -1.26965400
| 71> C                   1.98705400    0.57062300   -4.39383600
| 72> H                   0.03699600   -0.21223300   -4.95508700
| 73> H                   3.75460800    1.42569400   -3.46974400
| 74> H                   2.44566000    0.41557400   -5.37159700
| 75> C                  -1.25175700    0.10325400   -2.56596800
| 76> H                  -1.91300000   -0.36390500   -3.30588600
| 77> N                  -1.64885600    0.39203400   -1.36688900
| 78> C                  -2.92569200   -0.03281600   -0.93609500
| 79> C                  -3.29648600   -1.36885900   -1.10259900
| 80> C                  -3.78790200    0.85562200   -0.27673900
| 81> C                  -4.52099200   -1.78828600   -0.59274400
| 82> H                  -2.63646600   -2.07682600   -1.60392200
| 83> C                  -5.01494900    0.41039800    0.20515400
| 84> H                  -3.49553800    1.89953200   -0.15310500
| 85> C                  -5.39321500   -0.92306900    0.06080400
| 86> H                  -5.68270600    1.11084100    0.70969600
| 87> N                  -4.88931900   -3.20264000   -0.74284500
| 88> O                  -4.06604900   -3.95513900   -1.24191100
| 89> O                  -5.99573500   -3.54547600   -0.35890600
| 90> N                   4.18572600   -2.09597100   -1.87387400
| 91> O                   4.81965600   -2.89403200   -2.54485300
| 92> O                   4.62763200   -1.03328300   -1.46161300
| 93> N                   2.29398000   -1.70752800    4.14661900
| 94> O                   1.08469700   -1.85819300    4.24595200
| 95> O                   3.12335800   -2.33819500    4.78123300
| 96> H                  -6.34131600   -1.29407200    0.44900700
| 97> H                   2.83073200   -4.26658500   -2.68016200
| 98> H                   4.84804100   -1.26766800    3.44830100
| 99> *
|100>
|101>
|102>                          ****END OF INPUT****

CARTESIAN COORDINATES (ANGSTROEM)
---------------------------------
  Fe    -0.184434    1.056919   -0.144835
  N     -0.451419    2.995219   -0.513428
  C      0.488758    3.800744    0.054910
  C     -1.380662    3.555416   -1.295196
  C      0.495301    5.183312   -0.127629
  C     -1.434423    4.929920   -1.521138
  H     -2.105118    2.885860   -1.763059
  C     -0.487540    5.759153   -0.926419
  H      1.270315    5.781190    0.353718
  H     -2.218169    5.332577   -2.163485
  H     -0.510086    6.837902   -1.087914
  C      1.461404    3.091447    0.847300
  H      2.261880    3.629665    1.368497
  N      1.336383    1.802411    0.913336
  C      2.290507    1.041579    1.627144
  C      3.663152    1.174227    1.372162
  C      1.845967    0.100266    2.555659
  C      4.579425    0.349767    2.023584
  H      4.008235    1.908214    0.639491
  C      2.781619   -0.704714    3.190144
  H      0.793233    0.012251    2.811337
  C      4.148629   -0.606085    2.938087
  H      5.643530    0.447813    1.802600
  N     -1.324766    0.966185    1.482344
  C     -1.567433   -0.302342    1.920273
  C     -1.888411    1.985869    2.138841
  C     -2.406096   -0.570178    3.001804
  C     -2.731297    1.791500    3.232272
  H     -1.672118    2.992666    1.773728
  C     -3.003881    0.496640    3.666076
  H     -2.565738   -1.604728    3.309908
  H     -3.166689    2.659005    3.729052
  H     -3.665352    0.320948    4.515809
  C     -0.830748   -1.318540    1.209579
  H     -0.941689   -2.376785    1.477071
  N      0.002425   -0.908579    0.302725
  C      0.743120   -1.841566   -0.453014
  C      0.162800   -3.021186   -0.945205
  C      2.074802   -1.546827   -0.755586
  C      0.909558   -3.890022   -1.739034
  H     -0.881447   -3.249386   -0.718594
  C      2.793830   -2.433059   -1.544912
  H      2.550607   -0.645460   -0.373852
  C      2.235231   -3.604716   -2.052178
  H      0.445636   -4.798543   -2.126297
  N      0.832057    0.948352   -1.873231
  C      0.111656    0.427151   -2.904075
  C      2.099895    1.303260   -2.105794
  C      0.659343    0.218928   -4.169790
  C      2.712470    1.129761   -3.346286
  H      2.661065    1.725292   -1.269654
  C      1.987054    0.570623   -4.393836
  H      0.036996   -0.212233   -4.955087
  H      3.754608    1.425694   -3.469744
  H      2.445660    0.415574   -5.371597
  C     -1.251757    0.103254   -2.565968
  H     -1.913000   -0.363905   -3.305886
  N     -1.648856    0.392034   -1.366889
  C     -2.925692   -0.032816   -0.936095
  C     -3.296486   -1.368859   -1.102599
  C     -3.787902    0.855622   -0.276739
  C     -4.520992   -1.788286   -0.592744
  H     -2.636466   -2.076826   -1.603922
  C     -5.014949    0.410398    0.205154
  H     -3.495538    1.899532   -0.153105
  C     -5.393215   -0.923069    0.060804
  H     -5.682706    1.110841    0.709696
  N     -4.889319   -3.202640   -0.742845
  O     -4.066049   -3.955139   -1.241911
  O     -5.995735   -3.545476   -0.358906
  N      4.185726   -2.095971   -1.873874
  O      4.819656   -2.894032   -2.544853
  O      4.627632   -1.033283   -1.461613
  N      2.293980   -1.707528    4.146619
  O      1.084697   -1.858193    4.245952
  O      3.123358   -2.338195    4.781233
  H     -6.341316   -1.294072    0.449007
  H      2.830732   -4.266585   -2.680162
  H      4.848041   -1.267668    3.448301

 Total Charge           Charge          ....    2
 Multiplicity           Mult            ....    1
 Number of Electrons    NEL             ....  378
 Basis Dimension        Dim             ....  880

ORBITAL ENERGIES
----------------

  NO   OCC          E(Eh)            E(eV)
   0   2.0000    -259.268368     -7055.0510
   1   2.0000     -31.175201      -848.3203
   2   2.0000     -26.808090      -729.4852
   3   2.0000     -26.807768      -729.4765
   4   2.0000     -26.805901      -729.4257
   5   2.0000     -20.055671      -545.7425
   6   2.0000     -20.055009      -545.7245
   7   2.0000     -20.054783      -545.7184
   8   2.0000     -20.054650      -545.7148
   9   2.0000     -20.054553      -545.7121
  10   2.0000     -20.054279      -545.7047
  11   2.0000     -15.365009      -418.1032
  12   2.0000     -15.364401      -418.0866
  13   2.0000     -15.364268      -418.0830
  14   2.0000     -15.149424      -412.2368
  15   2.0000     -15.148891      -412.2223
  16   2.0000     -15.148083      -412.2003
  17   2.0000     -15.147968      -412.1972
  18   2.0000     -15.147963      -412.1970
  19   2.0000     -15.147440      -412.1828
  20   2.0000     -10.926259      -297.3186
  21   2.0000     -10.925770      -297.3053
  22   2.0000     -10.925603      -297.3008
  23   2.0000     -10.908910      -296.8465
  24   2.0000     -10.907648      -296.8122
  25   2.0000     -10.907179      -296.7994
  26   2.0000     -10.905610      -296.7567
  27   2.0000     -10.905134      -296.7438
  28   2.0000     -10.904709      -296.7322
  29   2.0000     -10.901222      -296.6373
  30   2.0000     -10.900786      -296.6255
  31   2.0000     -10.900766      -296.6249
  32   2.0000     -10.900280      -296.6117
  33   2.0000     -10.899613      -296.5936
  34   2.0000     -10.899596      -296.5931
  35   2.0000     -10.873559      -295.8846
  36   2.0000     -10.872786      -295.8635
  37   2.0000     -10.872520      -295.8563
  38   2.0000     -10.870822      -295.8101
  39   2.0000     -10.870306      -295.7961
  40   2.0000     -10.869921      -295.7856
  41   2.0000     -10.869574      -295.7761
  42   2.0000     -10.869149      -295.7646
  43   2.0000     -10.868838      -295.7561
  44   2.0000     -10.867461      -295.7187
  45   2.0000     -10.866564      -295.6942
  46   2.0000     -10.866470      -295.6917
  47   2.0000     -10.865377      -295.6619
  48   2.0000     -10.864876      -295.6483
  49   2.0000     -10.864196      -295.6298
  50   2.0000     -10.863001      -295.5973
  51   2.0000     -10.862522      -295.5843
  52   2.0000     -10.862124      -295.5734
  53   2.0000     -10.857586      -295.4499
  54   2.0000     -10.857416      -295.4453
  55   2.0000     -10.856780      -295.4280
  56   2.0000      -3.848649      -104.7271
  57   2.0000      -2.504298       -68.1454
  58   2.0000      -2.502777       -68.1040
  59   2.0000      -2.498372       -67.9842
  60   2.0000      -1.483520       -40.3686
  61   2.0000      -1.482967       -40.3536
  62   2.0000      -1.482725       -40.3470
  63   2.0000      -1.286214       -34.9997
  64   2.0000      -1.285562       -34.9819
  65   2.0000      -1.285409       -34.9778
  66   2.0000      -1.213364       -33.0173
  67   2.0000      -1.203156       -32.7395
  68   2.0000      -1.201308       -32.6893
  69   2.0000      -1.169258       -31.8171
  70   2.0000      -1.168573       -31.7985
  71   2.0000      -1.167252       -31.7625
  72   2.0000      -1.088095       -29.6086
  73   2.0000      -1.087498       -29.5923
  74   2.0000      -1.087016       -29.5792
  75   2.0000      -1.015039       -27.6206
  76   2.0000      -1.013699       -27.5841
  77   2.0000      -1.012321       -27.5467
  78   2.0000      -1.004662       -27.3383
  79   2.0000      -1.003756       -27.3136
  80   2.0000      -1.003135       -27.2967
  81   2.0000      -0.982122       -26.7249
  82   2.0000      -0.982005       -26.7217
  83   2.0000      -0.981586       -26.7103
  84   2.0000      -0.946212       -25.7477
  85   2.0000      -0.945330       -25.7237
  86   2.0000      -0.942605       -25.6496
  87   2.0000      -0.878891       -23.9158
  88   2.0000      -0.875333       -23.8190
  89   2.0000      -0.874428       -23.7944
  90   2.0000      -0.858825       -23.3698
  91   2.0000      -0.856558       -23.3081
  92   2.0000      -0.855273       -23.2731
  93   2.0000      -0.815873       -22.2010
  94   2.0000      -0.815445       -22.1894
  95   2.0000      -0.815076       -22.1793
  96   2.0000      -0.792032       -21.5523
  97   2.0000      -0.787292       -21.4233
  98   2.0000      -0.786175       -21.3929
  99   2.0000      -0.771147       -20.9840
 100   2.0000      -0.769508       -20.9394
 101   2.0000      -0.758343       -20.6356
 102   2.0000      -0.740174       -20.1411
 103   2.0000      -0.737921       -20.0798
 104   2.0000      -0.737149       -20.0588
 105   2.0000      -0.715388       -19.4667
 106   2.0000      -0.712902       -19.3990
 107   2.0000      -0.712235       -19.3809
 108   2.0000      -0.700445       -19.0601
 109   2.0000      -0.685737       -18.6598
 110   2.0000      -0.683548       -18.6003
 111   2.0000      -0.682463       -18.5708
 112   2.0000      -0.682271       -18.5656
 113   2.0000      -0.681817       -18.5532
 114   2.0000      -0.673649       -18.3309
 115   2.0000      -0.671663       -18.2769
 116   2.0000      -0.670787       -18.2530
 117   2.0000      -0.655539       -17.8381
 118   2.0000      -0.650734       -17.7074
 119   2.0000      -0.650298       -17.6955
 120   2.0000      -0.643566       -17.5123
 121   2.0000      -0.643151       -17.5010
 122   2.0000      -0.639067       -17.3899
 123   2.0000      -0.628635       -17.1060
 124   2.0000      -0.626729       -17.0542
 125   2.0000      -0.625492       -17.0205
 126   2.0000      -0.617861       -16.8129
 127   2.0000      -0.615883       -16.7590
 128   2.0000      -0.614650       -16.7255
 129   2.0000      -0.611423       -16.6377
 130   2.0000      -0.610331       -16.6079
 131   2.0000      -0.604625       -16.4527
 132   2.0000      -0.589268       -16.0348
 133   2.0000      -0.584573       -15.9070
 134   2.0000      -0.579701       -15.7745
 135   2.0000      -0.579062       -15.7571
 136   2.0000      -0.575962       -15.6727
 137   2.0000      -0.572554       -15.5800
 138   2.0000      -0.570743       -15.5307
 139   2.0000      -0.565497       -15.3880
 140   2.0000      -0.558709       -15.2033
 141   2.0000      -0.553377       -15.0582
 142   2.0000      -0.548669       -14.9301
 143   2.0000      -0.540331       -14.7031
 144   2.0000      -0.525442       -14.2980
 145   2.0000      -0.521108       -14.1801
 146   2.0000      -0.515505       -14.0276
 147   2.0000      -0.510140       -13.8816
 148   2.0000      -0.508563       -13.8387
 149   2.0000      -0.507726       -13.8159
 150   2.0000      -0.504999       -13.7417
 151   2.0000      -0.504128       -13.7180
 152   2.0000      -0.500452       -13.6180
 153   2.0000      -0.499488       -13.5918
 154   2.0000      -0.497641       -13.5415
 155   2.0000      -0.489481       -13.3195
 156   2.0000      -0.483328       -13.1520
 157   2.0000      -0.478539       -13.0217
 158   2.0000      -0.473515       -12.8850
 159   2.0000      -0.464255       -12.6330
 160   2.0000      -0.458502       -12.4765
 161   2.0000      -0.456453       -12.4207
 162   2.0000      -0.452925       -12.3247
 163   2.0000      -0.448779       -12.2119
 164   2.0000      -0.448071       -12.1926
 165   2.0000      -0.447089       -12.1659
 166   2.0000      -0.445449       -12.1213
 167   2.0000      -0.441970       -12.0266
 168   2.0000      -0.441032       -12.0011
 169   2.0000      -0.440787       -11.9944
 170   2.0000      -0.440168       -11.9776
 171   2.0000      -0.426446       -11.6042
 172   2.0000      -0.425809       -11.5869
 173   2.0000      -0.425329       -11.5738
 174   2.0000      -0.424265       -11.5448
 175   2.0000      -0.410396       -11.1674
 176   2.0000      -0.395095       -10.7511
 177   2.0000      -0.387408       -10.5419
 178   2.0000      -0.376749       -10.2519
 179   2.0000      -0.371695       -10.1143
 180   2.0000      -0.369483       -10.0541
 181   2.0000      -0.365144        -9.9361
 182   2.0000      -0.361228        -9.8295
 183   2.0000      -0.357412        -9.7257
 184   2.0000      -0.355711        -9.6794
 185   2.0000      -0.353955        -9.6316
 186   2.0000      -0.329919        -8.9776
 187   2.0000      -0.327575        -8.9138
 188   2.0000      -0.323320        -8.7980
 189   0.0000      -0.047225        -1.2851
 190   0.0000      -0.042886        -1.1670
 191   0.0000      -0.041609        -1.1322
 192   0.0000      -0.031527        -0.8579
 193   0.0000      -0.028962        -0.7881

MULLIKEN ATOMIC CHARGES
-----------------------
   0 Fe:    0.966283
   1 N :   -0.472094
   2 C :    0.086773
   3 C :    0.183730
   4 C :   -0.012466
   5 C :   -0.096421
   6 H :    0.128091
   7 C :    0.042447
   8 H :    0.105741
   9 H :    0.110103
  10 H :    0.113328
  11 C :    0.275310
  12 H :    0.130502
  13 N :   -0.455778
  14 C :    0.092658
  15 C :   -0.010744
  16 C :    0.011637
  17 C :   -0.052962
  18 H :    0.105584
  19 C :    0.109125
  20 H :    0.104466
  21 C :   -0.012244
  22 H :    0.100331
  23 N :   -0.463846
  24 C :    0.059988
  25 C :    0.175595
  26 C :    0.003626
  27 C :   -0.090010
  28 H :    0.130356
  29 C :    0.039888
  30 H :    0.104905
  31 H :    0.110105
  32 H :    0.114157
  33 C :    0.254603
  34 H :    0.129577
  35 N :   -0.434546
  36 C :    0.110594
  37 C :   -0.000868
  38 C :   -0.010125
  39 C :   -0.065601
  40 H :    0.099594
  41 C :    0.116884
  42 H :    0.122561
  43 C :   -0.010753
  44 H :    0.100796
  45 N :   -0.458215
  46 C :    0.084962
  47 C :    0.166156
  48 C :   -0.013291
  49 C :   -0.086714
  50 H :    0.123419
  51 C :    0.041210
  52 H :    0.105495
  53 H :    0.106090
  54 H :    0.112863
  55 C :    0.288529
  56 H :    0.129820
  57 N :   -0.445283
  58 C :    0.079368
  59 C :    0.000938
  60 C :    0.011989
  61 C :    0.109480
  62 H :    0.110130
  63 C :   -0.063853
  64 H :    0.103205
  65 C :   -0.006880
  66 H :    0.099893
  67 N :    0.307062
  68 O :   -0.333037
  69 O :   -0.327950
  70 N :    0.306714
  71 O :   -0.327844
  72 O :   -0.330059
  73 N :    0.307376
  74 O :   -0.334232
  75 O :   -0.325950
  76 H :    0.102697
  77 H :    0.101821
  78 H :    0.103211
Sum of atomic charges:    2.0000000

LOEWDIN ATOMIC CHARGES
----------------------
   0 Fe:    0.153049
   1 N :   -0.016475
   2 C :    0.009812
   3 C :    0.086729
   4 C :    0.006060
   5 C :   -0.016076
   6 H :    0.052261
   7 C :    0.040920
   8 H :    0.068062
   9 H :    0.064456
  10 H :    0.065639
  11 C :    0.168198
  12 H :    0.068286
  13 N :   -0.026628
  14 C :    0.009570
  15 C :    0.008837
  16 C :    0.007623
  17 C :   -0.010799
  18 H :    0.061978
  19 C :   -0.027090
  20 H :    0.054648
  21 C :    0.007620
  22 H :    0.059895
  23 N :   -0.018659
  24 C :    0.000462
  25 C :    0.088783
  26 C :    0.009173
  27 C :   -0.015524
  28 H :    0.054218
  29 C :    0.043375
  30 H :    0.068606
  31 H :    0.064658
  32 H :    0.066097
  33 C :    0.154989
  34 H :    0.067167
  35 N :   -0.028562
  36 C :    0.008108
  37 C :    0.010400
  38 C :    0.011254
  39 C :   -0.015498
  40 H :    0.059686
  41 C :   -0.028962
  42 H :    0.055448
  43 C :    0.009154
  44 H :    0.059809
  45 N :   -0.018798
  46 C :    0.008683
  47 C :    0.084454
  48 C :    0.006463
  49 C :   -0.014517
  50 H :    0.049256
  51 C :    0.040768
  52 H :    0.068028
  53 H :    0.063511
  54 H :    0.065581
  55 C :    0.167674
  56 H :    0.067867
  57 N :   -0.030199
  58 C :    0.006908
  59 C :    0.004083
  60 C :    0.014555
  61 C :   -0.030064
  62 H :    0.062431
  63 C :   -0.014022
  64 H :    0.059211
  65 C :    0.010729
  66 H :    0.059513
  67 N :    0.338622
  68 O :   -0.263065
  69 O :   -0.257357
  70 N :    0.339128
  71 O :   -0.256900
  72 O :   -0.259732
  73 N :    0.339197
  74 O :   -0.264265
  75 O :   -0.254960
  76 H :    0.062265
  77 H :    0.061886
  78 H :    0.062309

  Mayer bond orders larger than 0.100000
B(  0-Fe,  1-N ) :   0.3717 B(  0-Fe, 13-N ) :   0.3711 B(  0-Fe, 23-N ) :   0.3676
B(  0-Fe, 35-N ) :   0.3648 B(  0-Fe, 45-N ) :   0.3696 B(  0-Fe, 57-N ) :   0.3673
B(  1-N ,  2-C ) :   1.2547 B(  1-N ,  3-C ) :   1.3907 B(  2-C ,  4-C ) :   1.4324
B(  2-C , 11-C ) :   1.0619 B(  3-C ,  5-C ) :   1.3958 B(  3-C ,  6-H ) :   0.9603
B(  4-C ,  7-C ) :   1.3727 B(  4-C ,  8-H ) :   0.9802 B(  5-C ,  7-C ) :   1.4235
B(  5-C ,  9-H ) :   0.9811 B(  7-C , 10-H ) :   0.9824 B( 11-C , 12-H ) :   0.9701
B( 11-C , 13-N ) :   1.7149 B( 13-N , 14-C ) :   0.9437 B( 14-C , 15-C ) :   1.4020
B( 14-C , 16-C ) :   1.3904 B( 15-C , 17-C ) :   1.3865 B( 15-C , 18-H ) :   0.9886
B( 16-C , 19-C ) :   1.3970 B( 16-C , 20-H ) :   0.9828 B( 17-C , 21-C ) :   1.3990
B( 17-C , 22-H ) :   0.9870 B( 19-C , 21-C ) :   1.3748 B( 19-C , 73-N ) :   0.8344
B( 21-C , 78-H ) :   0.9881 B( 23-N , 24-C ) :   1.2542 B( 23-N , 25-C ) :   1.3907
B( 24-C , 26-C ) :   1.4357 B( 24-C , 33-C ) :   1.0668 B( 25-C , 27-C ) :   1.3927
B( 25-C , 28-H ) :   0.9636 B( 26-C , 29-C ) :   1.3663 B( 26-C , 30-H ) :   0.9812
B( 27-C , 29-C ) :   1.4196 B( 27-C , 31-H ) :   0.9831 B( 29-C , 32-H ) :   0.9826
B( 33-C , 34-H ) :   0.9714 B( 33-C , 35-N ) :   1.6920 B( 35-N , 36-C ) :   0.9665
B( 36-C , 37-C ) :   1.3841 B( 36-C , 38-C ) :   1.3855 B( 37-C , 39-C ) :   1.3898
B( 37-C , 40-H ) :   0.9867 B( 38-C , 41-C ) :   1.3974 B( 38-C , 42-H ) :   0.9771
B( 39-C , 43-C ) :   1.3966 B( 39-C , 44-H ) :   0.9869 B( 41-C , 43-C ) :   1.3757
B( 41-C , 70-N ) :   0.8340 B( 43-C , 77-H ) :   0.9884 B( 45-N , 46-C ) :   1.2582
B( 45-N , 47-C ) :   1.3920 B( 46-C , 48-C ) :   1.4295 B( 46-C , 55-C ) :   1.0658
B( 47-C , 49-C ) :   1.4002 B( 47-C , 50-H ) :   0.9636 B( 48-C , 51-C ) :   1.3692
B( 48-C , 52-H ) :   0.9808 B( 49-C , 51-C ) :   1.4191 B( 49-C , 53-H ) :   0.9836
B( 51-C , 54-H ) :   0.9833 B( 55-C , 56-H ) :   0.9673 B( 55-C , 57-N ) :   1.7036
B( 57-N , 58-C ) :   0.9501 B( 58-C , 59-C ) :   1.4050 B( 58-C , 60-C ) :   1.3782
B( 59-C , 61-C ) :   1.3636 B( 59-C , 62-H ) :   0.9806 B( 60-C , 63-C ) :   1.4096
B( 60-C , 64-H ) :   0.9865 B( 61-C , 65-C ) :   1.3956 B( 61-C , 67-N ) :   0.8343
B( 63-C , 65-C ) :   1.3768 B( 63-C , 66-H ) :   0.9872 B( 65-C , 76-H ) :   0.9877
B( 67-N , 68-O ) :   1.5203 B( 67-N , 69-O ) :   1.5316 B( 68-O , 69-O ) :   0.2202
B( 70-N , 71-O ) :   1.5312 B( 70-N , 72-O ) :   1.5172 B( 71-O , 72-O ) :   0.2197
B( 73-N , 74-O ) :   1.5154 B( 73-N , 75-O ) :   1.5339 B( 74-O , 75-O ) :   0.2205

MP2 TOTAL ENERGY:    -3589.600223021 Eh

-----------------------------------------------------------------------------
         ABSORPTION SPECTRUM VIA TRANSITION ELECTRIC DIPOLE MOMENTS
-----------------------------------------------------------------------------
State   Energy    Wavelength  fosc         T2        TX        TY        TZ
        (cm-1)      (nm)                 (au**2)    (au)      (au)      (au)
-----------------------------------------------------------------------------
   1   14275.1    700.5   0.000021146   0.00049   0.02054  -0.00362  -0.00724
   2   14722.3    679.2   0.000015008   0.00034   0.01763   0.00137  -0.00479
   3   15358.1    651.1   0.000040712   0.00087  -0.02746   0.00334   0.01037
   4   24947.0    400.8   0.000058414   0.00077  -0.00493  -0.00395   0.02704
   5   25477.3    392.5   0.000071397   0.00092   0.02142   0.02101   0.00473
   6   26532.6    376.9   0.000012263   0.00015  -0.00390   0.00674  -0.00956
   7   32256.5    310.0   0.360102442   3.67523   0.89123  -0.94845  -1.40762
   8   33320.0    300.1   0.434333778   4.29135   1.20023   0.78106  -1.49691
   9   31896.1    313.5   0.011199812   0.11560   0.23278   0.05702  -0.24116
  10   31884.5    313.6   0.006030106   0.06226  -0.05242  -0.11463   0.21535
  11   31917.5    313.3   0.016311299   0.16824  -0.27207  -0.19411   0.23779
  12   33267.7    300.6   0.670727636   6.63742   2.01260  -1.58542   0.27073
  13   34987.3    285.8   0.023894116   0.22483  -0.10197  -0.45597  -0.08075
  14   34940.1    286.2   0.049235852   0.46391  -0.65652   0.11594   0.13948
  15   35782.8    279.5   0.012967948   0.11931  -0.34310  -0.03123   0.02481
  16   36459.1    274.3   0.000020320   0.00018   0.00485  -0.00298   0.01229
  17   36068.6    277.2   0.030221628   0.27584   0.44483  -0.22596  -0.16405
  18   35941.6    278.2   0.009725634   0.08908   0.24544   0.16960  -0.00869
  19   36709.1    272.4   0.010276931   0.09216  -0.07979  -0.27483  -0.10134
  20   32366.2    309.0   0.055128148   0.56073  -0.10987  -0.49057   0.55498
  21   37159.0    269.1   0.080032831   0.70905  -0.76867   0.32562   0.11033
  22   35890.1    278.6   0.105657255   0.96917  -0.71156  -0.67397   0.09284
  23   35846.1    279.0   0.026044654   0.23919   0.06627  -0.43696   0.20944
  24   36838.1    271.5   0.074730086   0.66784   0.04225   0.71745   0.38901
  25   33776.7    296.1   0.050830001   0.49543   0.20155  -0.04138   0.67312
  26   32893.3    304.0   0.083732279   0.83803  -0.73186  -0.54990  -0.00441
  27   37512.7    266.6   0.138389099   1.21450  -1.03374  -0.11391   0.36457
  28   35395.8    282.5   0.154898912   1.44070   0.25234   0.94663  -0.69347
  29   36460.8    274.3   0.044560339   0.40234  -0.40843   0.30760   0.37538
  30   29632.0    337.5   0.022652152   0.25167   0.10964   0.45778  -0.17346
  31   30321.2    329.8   0.014021407   0.15224  -0.12740  -0.29527   0.22095
  32   36320.4    275.3   0.005215206   0.04727   0.20621   0.02283  -0.06503
  33   29077.9    343.9   0.001016422   0.01151   0.05150   0.04018   0.08509
  34   34117.1    293.1   0.001720383   0.01660   0.11636   0.03645  -0.04163
  35   27922.5    358.1   0.055532756   0.65474   0.30478   0.20199   0.72184
  36   39547.0    252.9   0.051999825   0.43288  -0.13864   0.58665   0.26362
  37   40408.9    247.5   0.008280431   0.06746  -0.20514   0.04257   0.15351
  38   37225.5    268.6   0.025240521   0.22322   0.33348  -0.32804   0.06633
  39   35132.9    284.6   0.098996681   0.92765   0.34050   0.50771  -0.74427
  40   38508.8    259.7   0.049303890   0.42150  -0.21608   0.47754  -0.38309

FINAL SINGLE POINT ENERGY     -3586.630103454836

DIPOLE MOMENT
-------------
                                X             Y             Z
Electronic contribution:      1.30894      -3.99651       1.76765
Nuclear contribution   :     -3.36808      12.51579      -3.91256
                        -----------------------------------------
Total Dipole Moment    :     -2.05914       8.51928      -2.14491
                        -----------------------------------------
Magnitude (a.u.)       :      9.02324
Magnitude (Debye)      :     22.93525

Rotational constants in cm-1:     0.002342     0.001850     0.001765
Rotational constants in MHz :    70.207339    55.448862    52.928199

                             ****ORCA TERMINATED NORMALLY****
TOTAL RUN TIME: 0 days 3 hours 41 minutes 20 seconds 541 msec
