                         Program Version 5.0.4 -  RELEASE  -
|  1> %maxcore 6000
|  2> %pal
|  3>  nprocs 8
|  4> end
|  5> ! RI-B2GP-PLYP def2-SVP def2/J def2-SVP/C RIJCOSX CPCM TIGHTSCF
|  6>
|  7> %TDDFT
|  8>     DCORR      4
|  9>     NROOTS    40
| 10>     TDA       FALSE
| 11> END
| 12>
| 13> %CPCM
| 14>     SMD		TRUE
| 15>     SMDsolvent	"Acetonitrile"
| 16> END
| 17>
| 18> * xyz 2 1
| 19> Fe                 -0.18443400    1.05691900   -0.14483500
| 20> N                  -0.45141900    2.99521900   -0.51342800
| 21> C                   0.48875800    3.80074400    0.05491000
| 22> C                  -1.38066200    3.55541600   -1.29519600
| 23> C                   0.49530100    5.18331200   -0.12762900
| 24> C                  -1.43442300    4.92992000   -1.52113800
| 25> H                  -2.10511800    2.88586000   -1.76305900
| 26> C                  -0.48754000    5.75915300   -0.92641900
| 27> H                   1.27031500    5.78119000    0.35371800
| 28> H                  -2.21816900    5.33257700   -2.16348500
| 29> H                  -0.51008600    6.83790200   -1.08791400
| 30> C                   1.46140400    3.09144700    0.84730000
| 31> H                   2.26188000    3.62966500    1.36849700
| 32> N                   1.33638300    1.80241100    0.91333600
| 33> C                   2.29050700    1.04157900    1.62714400
| 34> C                   3.66315200    1.17422700    1.37216200
| 35> C                   1.84596700    0.10026600    2.55565900
| 36> C                   4.57942500    0.34976700    2.02358400
| 37> H                   4.00823500    1.90821400    0.63949100
| 38> C                   2.78161900   -0.70471400    3.19014400
| 39> H                   0.79323300    0.01225100    2.81133700
| 40> C                   4.14862900   -0.60608500    2.93808700
| 41> H                   5.64353000    0.44781300    1.80260000
| 42> N                  -1.32476600    0.96618500    1.48234400
| 43> C                  -1.56743300   -0.30234200    1.92027300
| 44> C                  -1.88841100    1.98586900    2.13884100
| 45> C                  -2.40609600   -0.57017800    3.00180400
| 46> C                  -2.73129700    1.79150000    3.23227200
| 47> H                  -1.67211800    2.99266600    1.77372800
| 48> C                  -3.00388100    0.49664000    3.66607600
| 49> H                  -2.56573800   -1.60472800    3.30990800
| 50> H                  -3.16668900    2.65900500    3.72905200
| 51> H                  -3.66535200    0.32094800    4.51580900
| 52> C                  -0.83074800   -1.31854000    1.20957900
| 53> H                  -0.94168900   -2.37678500    1.47707100
| 54> N                   0.00242500   -0.90857900    0.30272500
| 55> C                   0.74312000   -1.84156600   -0.45301400
| 56> C                   0.16280000   -3.02118600   -0.94520500
| 57> C                   2.07480200   -1.54682700   -0.75558600
| 58> C                   0.90955800   -3.89002200   -1.73903400
| 59> H                  -0.88144700   -3.24938600   -0.71859400
| 60> C                   2.79383000   -2.43305900   -1.54491200
| 61> H                   2.55060700   -0.64546000   -0.37385200
| 62> C                   2.23523100   -3.60471600   -2.05217800
| 63> H                   0.44563600   -4.79854300   -2.12629700
| 64> N                   0.83205700    0.94835200   -1.87323100
| 65> C                   0.11165600    0.42715100   -2.90407500
| 66> C                   2.09989500    1.30326000   -2.10579400
| 67> C                   0.65934300    0.21892800   -4.16979000
| 68> C                   2.71247000    1.12976100   -3.34628600
| 69> H                   2.66106500    1.72529200   -1.26965400
| 70> C                   1.98705400    0.57062300   -4.39383600
| 71> H                   0.03699600   -0.21223300   -4.95508700
| 72> H                   3.75460800    1.42569400   -3.46974400
| 73> H                   2.44566000    0.41557400   -5.37159700
| 74> C                  -1.25175700    0.10325400   -2.56596800
| 75> H                  -1.91300000   -0.36390500   -3.30588600
| 76> N                  -1.64885600    0.39203400   -1.36688900
| 77> C                  -2.92569200   -0.03281600   -0.93609500
| 78> C                  -3.29648600   -1.36885900   -1.10259900
| 79> C                  -3.78790200    0.85562200   -0.27673900
| 80> C                  -4.52099200   -1.78828600   -0.59274400
| 81> H                  -2.63646600   -2.07682600   -1.60392200
| 82> C                  -5.01494900    0.41039800    0.20515400
| 83> H                  -3.49553800    1.89953200   -0.15310500
| 84> C                  -5.39321500   -0.92306900    0.06080400
| 85> H                  -5.68270600    1.11084100    0.70969600
| 86> N                  -4.88931900   -3.20264000   -0.74284500
| 87> O                  -4.06604900   -3.95513900   -1.24191100
| 88> O                  -5.99573500   -3.54547600   -0.35890600
| 89> N                   4.18572600   -2.09597100   -1.87387400
| 90> O                   4.81965600   -2.89403200   -2.54485300
| 91> O                   4.62763200   -1.03328300   -1.46161300
| 92> N                   2.29398000   -1.70752800    4.14661900
| 93> O                   1.08469700   -1.85819300    4.24595200
| 94> O                   3.12335800   -2.33819500    4.78123300
| 95> H                  -6.34131600   -1.29407200    0.44900700
| 96> H                   2.83073200   -4.26658500   -2.68016200
| 97> H                   4.84804100   -1.26766800    3.44830100
| 98> *
| 99>
|100>                          ****END OF INPUT****

CARTESIAN COORDINATES (ANGSTROEM)
---------------------------------
  Fe    -0.184434    1.056919   -0.144835
  N     -0.451419    2.995219   -0.513428
  C      0.488758    3.800744    0.054910
  C     -1.380662    3.555416   -1.295196
  C      0.495301    5.183312   -0.127629
  C     -1.434423    4.929920   -1.521138
  H     -2.105118    2.885860   -1.763059
  C     -0.487540    5.759153   -0.926419
  H      1.270315    5.781190    0.353718
  H     -2.218169    5.332577   -2.163485
  H     -0.510086    6.837902   -1.087914
  C      1.461404    3.091447    0.847300
  H      2.261880    3.629665    1.368497
  N      1.336383    1.802411    0.913336
  C      2.290507    1.041579    1.627144
  C      3.663152    1.174227    1.372162
  C      1.845967    0.100266    2.555659
  C      4.579425    0.349767    2.023584
  H      4.008235    1.908214    0.639491
  C      2.781619   -0.704714    3.190144
  H      0.793233    0.012251    2.811337
  C      4.148629   -0.606085    2.938087
  H      5.643530    0.447813    1.802600
  N     -1.324766    0.966185    1.482344
  C     -1.567433   -0.302342    1.920273
  C     -1.888411    1.985869    2.138841
  C     -2.406096   -0.570178    3.001804
  C     -2.731297    1.791500    3.232272
  H     -1.672118    2.992666    1.773728
  C     -3.003881    0.496640    3.666076
  H     -2.565738   -1.604728    3.309908
  H     -3.166689    2.659005    3.729052
  H     -3.665352    0.320948    4.515809
  C     -0.830748   -1.318540    1.209579
  H     -0.941689   -2.376785    1.477071
  N      0.002425   -0.908579    0.302725
  C      0.743120   -1.841566   -0.453014
  C      0.162800   -3.021186   -0.945205
  C      2.074802   -1.546827   -0.755586
  C      0.909558   -3.890022   -1.739034
  H     -0.881447   -3.249386   -0.718594
  C      2.793830   -2.433059   -1.544912
  H      2.550607   -0.645460   -0.373852
  C      2.235231   -3.604716   -2.052178
  H      0.445636   -4.798543   -2.126297
  N      0.832057    0.948352   -1.873231
  C      0.111656    0.427151   -2.904075
  C      2.099895    1.303260   -2.105794
  C      0.659343    0.218928   -4.169790
  C      2.712470    1.129761   -3.346286
  H      2.661065    1.725292   -1.269654
  C      1.987054    0.570623   -4.393836
  H      0.036996   -0.212233   -4.955087
  H      3.754608    1.425694   -3.469744
  H      2.445660    0.415574   -5.371597
  C     -1.251757    0.103254   -2.565968
  H     -1.913000   -0.363905   -3.305886
  N     -1.648856    0.392034   -1.366889
  C     -2.925692   -0.032816   -0.936095
  C     -3.296486   -1.368859   -1.102599
  C     -3.787902    0.855622   -0.276739
  C     -4.520992   -1.788286   -0.592744
  H     -2.636466   -2.076826   -1.603922
  C     -5.014949    0.410398    0.205154
  H     -3.495538    1.899532   -0.153105
  C     -5.393215   -0.923069    0.060804
  H     -5.682706    1.110841    0.709696
  N     -4.889319   -3.202640   -0.742845
  O     -4.066049   -3.955139   -1.241911
  O     -5.995735   -3.545476   -0.358906
  N      4.185726   -2.095971   -1.873874
  O      4.819656   -2.894032   -2.544853
  O      4.627632   -1.033283   -1.461613
  N      2.293980   -1.707528    4.146619
  O      1.084697   -1.858193    4.245952
  O      3.123358   -2.338195    4.781233
  H     -6.341316   -1.294072    0.449007
  H      2.830732   -4.266585   -2.680162
  H      4.848041   -1.267668    3.448301

 Total Charge           Charge          ....    2
 Multiplicity           Mult            ....    1
 Number of Electrons    NEL             ....  378
 Basis Dimension        Dim             ....  880

ORBITAL ENERGIES
----------------

  NO   OCC          E(Eh)            E(eV)
   0   2.0000    -259.045882     -7048.9968
   1   2.0000     -31.076239      -845.6275
   2   2.0000     -26.732580      -727.4305
   3   2.0000     -26.732270      -727.4221
   4   2.0000     -26.730435      -727.3721
   5   2.0000     -19.991865      -544.0063
   6   2.0000     -19.991202      -543.9883
   7   2.0000     -19.991012      -543.9831
   8   2.0000     -19.990886      -543.9797
   9   2.0000     -19.990734      -543.9755
  10   2.0000     -19.990456      -543.9680
  11   2.0000     -15.307940      -416.5502
  12   2.0000     -15.307315      -416.5332
  13   2.0000     -15.307223      -416.5307
  14   2.0000     -15.090261      -410.6269
  15   2.0000     -15.089900      -410.6170
  16   2.0000     -15.089008      -410.5928
  17   2.0000     -15.088733      -410.5853
  18   2.0000     -15.088616      -410.5821
  19   2.0000     -15.088099      -410.5681
  20   2.0000     -10.881901      -296.1116
  21   2.0000     -10.881414      -296.0983
  22   2.0000     -10.880990      -296.0868
  23   2.0000     -10.863885      -295.6213
  24   2.0000     -10.863007      -295.5974
  25   2.0000     -10.862464      -295.5827
  26   2.0000     -10.860666      -295.5337
  27   2.0000     -10.860204      -295.5212
  28   2.0000     -10.859710      -295.5077
  29   2.0000     -10.857005      -295.4341
  30   2.0000     -10.855889      -295.4038
  31   2.0000     -10.855801      -295.4014
  32   2.0000     -10.855673      -295.3979
  33   2.0000     -10.855244      -295.3862
  34   2.0000     -10.854846      -295.3754
  35   2.0000     -10.829906      -294.6967
  36   2.0000     -10.829191      -294.6773
  37   2.0000     -10.828891      -294.6691
  38   2.0000     -10.826215      -294.5963
  39   2.0000     -10.826053      -294.5919
  40   2.0000     -10.825589      -294.5793
  41   2.0000     -10.825428      -294.5749
  42   2.0000     -10.825215      -294.5691
  43   2.0000     -10.824525      -294.5503
  44   2.0000     -10.823291      -294.5167
  45   2.0000     -10.822421      -294.4930
  46   2.0000     -10.822347      -294.4910
  47   2.0000     -10.821094      -294.4569
  48   2.0000     -10.820618      -294.4440
  49   2.0000     -10.819749      -294.4203
  50   2.0000     -10.819719      -294.4195
  51   2.0000     -10.819357      -294.4097
  52   2.0000     -10.818830      -294.3953
  53   2.0000     -10.813777      -294.2578
  54   2.0000     -10.813676      -294.2551
  55   2.0000     -10.813052      -294.2381
  56   2.0000      -3.802688      -103.4764
  57   2.0000      -2.469736       -67.2049
  58   2.0000      -2.468209       -67.1634
  59   2.0000      -2.463729       -67.0415
  60   2.0000      -1.451441       -39.4957
  61   2.0000      -1.450868       -39.4801
  62   2.0000      -1.450689       -39.4753
  63   2.0000      -1.256887       -34.2016
  64   2.0000      -1.256214       -34.1833
  65   2.0000      -1.256130       -34.1810
  66   2.0000      -1.185079       -32.2476
  67   2.0000      -1.174989       -31.9731
  68   2.0000      -1.173210       -31.9247
  69   2.0000      -1.141715       -31.0676
  70   2.0000      -1.141074       -31.0502
  71   2.0000      -1.139739       -31.0139
  72   2.0000      -1.061221       -28.8773
  73   2.0000      -1.060632       -28.8613
  74   2.0000      -1.060168       -28.8486
  75   2.0000      -0.989994       -26.9391
  76   2.0000      -0.988664       -26.9029
  77   2.0000      -0.987331       -26.8667
  78   2.0000      -0.979508       -26.6538
  79   2.0000      -0.978562       -26.6280
  80   2.0000      -0.977982       -26.6122
  81   2.0000      -0.957410       -26.0525
  82   2.0000      -0.957285       -26.0490
  83   2.0000      -0.956876       -26.0379
  84   2.0000      -0.922238       -25.0954
  85   2.0000      -0.921360       -25.0715
  86   2.0000      -0.918678       -24.9985
  87   2.0000      -0.855842       -23.2887
  88   2.0000      -0.852315       -23.1927
  89   2.0000      -0.851414       -23.1681
  90   2.0000      -0.836625       -22.7657
  91   2.0000      -0.834383       -22.7047
  92   2.0000      -0.833103       -22.6699
  93   2.0000      -0.794540       -21.6205
  94   2.0000      -0.794100       -21.6086
  95   2.0000      -0.793719       -21.5982
  96   2.0000      -0.770970       -20.9792
  97   2.0000      -0.766264       -20.8511
  98   2.0000      -0.765194       -20.8220
  99   2.0000      -0.750120       -20.4118
 100   2.0000      -0.748526       -20.3684
 101   2.0000      -0.737330       -20.0638
 102   2.0000      -0.718956       -19.5638
 103   2.0000      -0.716375       -19.4936
 104   2.0000      -0.715602       -19.4725
 105   2.0000      -0.694926       -18.9099
 106   2.0000      -0.692865       -18.8538
 107   2.0000      -0.692208       -18.8359
 108   2.0000      -0.680475       -18.5167
 109   2.0000      -0.666230       -18.1290
 110   2.0000      -0.664065       -18.0701
 111   2.0000      -0.662325       -18.0228
 112   2.0000      -0.662131       -18.0175
 113   2.0000      -0.661828       -18.0093
 114   2.0000      -0.653048       -17.7703
 115   2.0000      -0.650960       -17.7135
 116   2.0000      -0.650103       -17.6902
 117   2.0000      -0.636660       -17.3244
 118   2.0000      -0.632221       -17.2036
 119   2.0000      -0.631755       -17.1909
 120   2.0000      -0.625506       -17.0209
 121   2.0000      -0.625067       -17.0090
 122   2.0000      -0.621059       -16.8999
 123   2.0000      -0.610693       -16.6178
 124   2.0000      -0.608847       -16.5676
 125   2.0000      -0.607626       -16.5343
 126   2.0000      -0.599949       -16.3254
 127   2.0000      -0.598385       -16.2829
 128   2.0000      -0.597447       -16.2574
 129   2.0000      -0.594090       -16.1660
 130   2.0000      -0.593026       -16.1370
 131   2.0000      -0.587589       -15.9891
 132   2.0000      -0.572285       -15.5727
 133   2.0000      -0.567971       -15.4553
 134   2.0000      -0.562962       -15.3190
 135   2.0000      -0.562498       -15.3064
 136   2.0000      -0.558924       -15.2091
 137   2.0000      -0.556369       -15.1396
 138   2.0000      -0.554152       -15.0792
 139   2.0000      -0.548680       -14.9303
 140   2.0000      -0.541582       -14.7372
 141   2.0000      -0.536069       -14.5872
 142   2.0000      -0.532160       -14.4808
 143   2.0000      -0.523264       -14.2387
 144   2.0000      -0.508539       -13.8381
 145   2.0000      -0.505208       -13.7474
 146   2.0000      -0.499112       -13.5815
 147   2.0000      -0.494907       -13.4671
 148   2.0000      -0.493539       -13.4299
 149   2.0000      -0.492824       -13.4104
 150   2.0000      -0.489560       -13.3216
 151   2.0000      -0.488395       -13.2899
 152   2.0000      -0.485697       -13.2165
 153   2.0000      -0.484707       -13.1896
 154   2.0000      -0.482311       -13.1244
 155   2.0000      -0.474002       -12.8982
 156   2.0000      -0.467086       -12.7100
 157   2.0000      -0.462461       -12.5842
 158   2.0000      -0.456468       -12.4211
 159   2.0000      -0.448120       -12.1940
 160   2.0000      -0.442744       -12.0477
 161   2.0000      -0.439959       -11.9719
 162   2.0000      -0.436846       -11.8872
 163   2.0000      -0.432236       -11.7617
 164   2.0000      -0.431910       -11.7529
 165   2.0000      -0.430793       -11.7225
 166   2.0000      -0.429880       -11.6976
 167   2.0000      -0.425525       -11.5791
 168   2.0000      -0.423930       -11.5357
 169   2.0000      -0.423100       -11.5131
 170   2.0000      -0.422465       -11.4959
 171   2.0000      -0.409535       -11.1440
 172   2.0000      -0.409043       -11.1306
 173   2.0000      -0.408553       -11.1173
 174   2.0000      -0.407250       -11.0818
 175   2.0000      -0.393601       -10.7104
 176   2.0000      -0.377163       -10.2631
 177   2.0000      -0.372169       -10.1272
 178   2.0000      -0.360393        -9.8068
 179   2.0000      -0.356532        -9.7017
 180   2.0000      -0.353129        -9.6091
 181   2.0000      -0.350388        -9.5345
 182   2.0000      -0.346368        -9.4252
 183   2.0000      -0.342626        -9.3233
 184   2.0000      -0.340940        -9.2774
 185   2.0000      -0.339228        -9.2309
 186   2.0000      -0.315472        -8.5844
 187   2.0000      -0.313204        -8.5227
 188   2.0000      -0.309192        -8.4135
 189   0.0000      -0.043669        -1.1883
 190   0.0000      -0.039489        -1.0746
 191   0.0000      -0.038234        -1.0404
 192   0.0000      -0.029020        -0.7897
 193   0.0000      -0.026513        -0.7214

MULLIKEN ATOMIC CHARGES
-----------------------
   0 Fe:    0.898138
   1 N :   -0.411475
   2 C :    0.110009
   3 C :    0.176988
   4 C :   -0.000046
   5 C :   -0.052710
   6 H :    0.099937
   7 C :    0.068175
   8 H :    0.074156
   9 H :    0.078224
  10 H :    0.082148
  11 C :    0.252467
  12 H :    0.102586
  13 N :   -0.401140
  14 C :    0.114034
  15 C :    0.016262
  16 C :    0.010762
  17 C :   -0.024264
  18 H :    0.073596
  19 C :    0.135403
  20 H :    0.065439
  21 C :   -0.006322
  22 H :    0.067655
  23 N :   -0.409796
  24 C :    0.093482
  25 C :    0.171536
  26 C :    0.014063
  27 C :   -0.047849
  28 H :    0.100523
  29 C :    0.065373
  30 H :    0.073460
  31 H :    0.078124
  32 H :    0.083019
  33 C :    0.230623
  34 H :    0.101281
  35 N :   -0.383506
  36 C :    0.133347
  37 C :    0.012259
  38 C :   -0.012483
  39 C :   -0.031249
  40 H :    0.067428
  41 C :    0.143949
  42 H :    0.086726
  43 C :   -0.006228
  44 H :    0.068074
  45 N :   -0.401561
  46 C :    0.108239
  47 C :    0.165807
  48 C :   -0.000495
  49 C :   -0.045319
  50 H :    0.092178
  51 C :    0.066550
  52 H :    0.073889
  53 H :    0.074171
  54 H :    0.081642
  55 C :    0.265134
  56 H :    0.101950
  57 N :   -0.393000
  58 C :    0.106929
  59 C :   -0.005670
  60 C :    0.027687
  61 C :    0.138124
  62 H :    0.076158
  63 C :   -0.030506
  64 H :    0.069697
  65 C :   -0.002005
  66 H :    0.067399
  67 N :    0.310196
  68 O :   -0.325842
  69 O :   -0.321154
  70 N :    0.309891
  71 O :   -0.321009
  72 O :   -0.323303
  73 N :    0.310801
  74 O :   -0.327149
  75 O :   -0.319155
  76 H :    0.069301
  77 H :    0.068405
  78 H :    0.069841
Sum of atomic charges:    2.0000000

LOEWDIN ATOMIC CHARGES
----------------------
   0 Fe:    0.156154
   1 N :   -0.011885
   2 C :    0.014220
   3 C :    0.088186
   4 C :    0.010656
   5 C :   -0.009802
   6 H :    0.046885
   7 C :    0.045249
   8 H :    0.061692
   9 H :    0.058111
  10 H :    0.059341
  11 C :    0.166501
  12 H :    0.062118
  13 N :   -0.021548
  14 C :    0.013738
  15 C :    0.013849
  16 C :    0.011175
  17 C :   -0.005475
  18 H :    0.055562
  19 C :   -0.022824
  20 H :    0.049049
  21 C :    0.011788
  22 H :    0.053177
  23 N :   -0.015244
  24 C :    0.005863
  25 C :    0.090586
  26 C :    0.013544
  27 C :   -0.009360
  28 H :    0.048764
  29 C :    0.047653
  30 H :    0.062224
  31 H :    0.058297
  32 H :    0.059799
  33 C :    0.154537
  34 H :    0.061011
  35 N :   -0.024862
  36 C :    0.011843
  37 C :    0.014698
  38 C :    0.014995
  39 C :   -0.010076
  40 H :    0.053529
  41 C :   -0.024649
  42 H :    0.050854
  43 C :    0.013311
  44 H :    0.053078
  45 N :   -0.015208
  46 C :    0.013100
  47 C :    0.086641
  48 C :    0.011044
  49 C :   -0.008554
  50 H :    0.044333
  51 C :    0.045031
  52 H :    0.061630
  53 H :    0.057093
  54 H :    0.059264
  55 C :    0.166326
  56 H :    0.061694
  57 N :   -0.025532
  58 C :    0.010896
  59 C :    0.007926
  60 C :    0.019074
  61 C :   -0.025658
  62 H :    0.056223
  63 C :   -0.008397
  64 H :    0.053364
  65 C :    0.014793
  66 H :    0.052816
  67 N :    0.336151
  68 O :   -0.261947
  69 O :   -0.256215
  70 N :    0.336595
  71 O :   -0.255677
  72 O :   -0.258928
  73 N :    0.336707
  74 O :   -0.263208
  75 O :   -0.253848
  76 H :    0.055504
  77 H :    0.055111
  78 H :    0.055545

  Mayer bond orders larger than 0.100000
B(  0-Fe,  1-N ) :   0.3878 B(  0-Fe, 13-N ) :   0.3869 B(  0-Fe, 23-N ) :   0.3834
B(  0-Fe, 35-N ) :   0.3781 B(  0-Fe, 45-N ) :   0.3847 B(  0-Fe, 57-N ) :   0.3808
B(  1-N ,  2-C ) :   1.2672 B(  1-N ,  3-C ) :   1.4007 B(  2-C ,  4-C ) :   1.4231
B(  2-C , 11-C ) :   1.0501 B(  3-C ,  5-C ) :   1.3889 B(  3-C ,  6-H ) :   0.9638
B(  4-C ,  7-C ) :   1.3659 B(  4-C ,  8-H ) :   0.9876 B(  5-C ,  7-C ) :   1.4179
B(  5-C ,  9-H ) :   0.9862 B(  7-C , 10-H ) :   0.9875 B( 11-C , 12-H ) :   0.9774
B( 11-C , 13-N ) :   1.7210 B( 13-N , 14-C ) :   0.9446 B( 14-C , 15-C ) :   1.3978
B( 14-C , 16-C ) :   1.3784 B( 15-C , 17-C ) :   1.3747 B( 15-C , 18-H ) :   0.9950
B( 16-C , 19-C ) :   1.3853 B( 16-C , 20-H ) :   0.9923 B( 17-C , 21-C ) :   1.3863
B( 17-C , 22-H ) :   0.9924 B( 19-C , 21-C ) :   1.3719 B( 19-C , 73-N ) :   0.8480
B( 21-C , 78-H ) :   0.9967 B( 23-N , 24-C ) :   1.2652 B( 23-N , 25-C ) :   1.3998
B( 24-C , 26-C ) :   1.4262 B( 24-C , 33-C ) :   1.0534 B( 25-C , 27-C ) :   1.3864
B( 25-C , 28-H ) :   0.9677 B( 26-C , 29-C ) :   1.3597 B( 26-C , 30-H ) :   0.9884
B( 27-C , 29-C ) :   1.4135 B( 27-C , 31-H ) :   0.9883 B( 29-C , 32-H ) :   0.9879
B( 33-C , 34-H ) :   0.9788 B( 33-C , 35-N ) :   1.6980 B( 35-N , 36-C ) :   0.9666
B( 36-C , 37-C ) :   1.3832 B( 36-C , 38-C ) :   1.3742 B( 37-C , 39-C ) :   1.3782
B( 37-C , 40-H ) :   0.9930 B( 38-C , 41-C ) :   1.3854 B( 38-C , 42-H ) :   0.9856
B( 39-C , 43-C ) :   1.3836 B( 39-C , 44-H ) :   0.9922 B( 41-C , 43-C ) :   1.3726
B( 41-C , 70-N ) :   0.8479 B( 43-C , 77-H ) :   0.9970 B( 45-N , 46-C ) :   1.2700
B( 45-N , 47-C ) :   1.4015 B( 46-C , 48-C ) :   1.4206 B( 46-C , 55-C ) :   1.0546
B( 47-C , 49-C ) :   1.3934 B( 47-C , 50-H ) :   0.9680 B( 48-C , 51-C ) :   1.3619
B( 48-C , 52-H ) :   0.9882 B( 49-C , 51-C ) :   1.4131 B( 49-C , 53-H ) :   0.9885
B( 51-C , 54-H ) :   0.9884 B( 55-C , 56-H ) :   0.9742 B( 55-C , 57-N ) :   1.7098
B( 57-N , 58-C ) :   0.9491 B( 58-C , 59-C ) :   1.3923 B( 58-C , 60-C ) :   1.3772
B( 59-C , 61-C ) :   1.3523 B( 59-C , 62-H ) :   0.9915 B( 60-C , 63-C ) :   1.3988
B( 60-C , 64-H ) :   0.9920 B( 61-C , 65-C ) :   1.3926 B( 61-C , 67-N ) :   0.8482
B( 63-C , 65-C ) :   1.3649 B( 63-C , 66-H ) :   0.9921 B( 65-C , 76-H ) :   0.9962
B( 67-N , 68-O ) :   1.5249 B( 67-N , 69-O ) :   1.5364 B( 68-O , 69-O ) :   0.2224
B( 70-N , 71-O ) :   1.5361 B( 70-N , 72-O ) :   1.5209 B( 71-O , 72-O ) :   0.2219
B( 73-N , 74-O ) :   1.5193 B( 73-N , 75-O ) :   1.5386 B( 74-O , 75-O ) :   0.2227

MP2 TOTAL ENERGY:    -3590.367989893 Eh

-----------------------------------------------------------------------------
         ABSORPTION SPECTRUM VIA TRANSITION ELECTRIC DIPOLE MOMENTS
-----------------------------------------------------------------------------
State   Energy    Wavelength  fosc         T2        TX        TY        TZ
        (cm-1)      (nm)                 (au**2)    (au)      (au)      (au)
-----------------------------------------------------------------------------
   1   15512.2    644.7   0.000026596   0.00056   0.02169  -0.00333  -0.00909
   2   15969.4    626.2   0.000011734   0.00024  -0.01492  -0.00145   0.00415
   3   16617.0    601.8   0.000056135   0.00111   0.03112  -0.00237  -0.01175
   4   25873.9    386.5   0.000087690   0.00112  -0.00832  -0.00641   0.03171
   5   26416.5    378.6   0.000108993   0.00136  -0.02355  -0.02771  -0.00600
   6   27551.5    363.0   0.000025237   0.00030   0.00442  -0.01291   0.01074
   7   31722.6    315.2   0.342483482   3.55424   0.86744  -0.93781  -1.38647
   8   32906.4    303.9   0.441736582   4.41936   1.13232   0.86371  -1.54635
   9   32665.9    306.1   0.655703794   6.60828  -2.06380   1.52379  -0.16455
  10   32028.4    312.2   0.007091854   0.07290   0.03285  -0.18285   0.19592
  11   32010.9    312.4   0.004428777   0.04555  -0.17333   0.05604   0.11119
  12   32029.1    312.2   0.005028851   0.05169   0.06181   0.19554  -0.09814
  13   34925.3    286.3   0.025745225   0.24268   0.30619   0.38557   0.01615
  14   34642.3    288.7   0.059295513   0.56350   0.65402  -0.31849  -0.18526
  15   35491.2    281.8   0.028916179   0.26822  -0.51001  -0.06771   0.05940
  16   36676.8    272.7   0.000114871   0.00103  -0.02167   0.00250   0.02356
  17   36646.5    272.9   0.004946171   0.04443   0.19825  -0.00210  -0.07161
  18   36519.5    273.8   0.005352168   0.04825  -0.13139   0.15990   0.07360
  19   31026.9    322.3   0.010563459   0.11208  -0.15881  -0.08693   0.28161
  20   28675.5    348.7   0.016831239   0.19323  -0.05075  -0.17564   0.39976
  21   32814.4    304.7   0.013257208   0.13300   0.15830   0.32853  -0.00357
  22   37880.6    264.0   0.112066649   0.97395   0.63393  -0.75260   0.07530
  23   36695.7    272.5   0.092556850   0.83036   0.70336   0.45474  -0.35898
  24   37688.6    265.3   0.104567870   0.91341   0.44891   0.82399   0.18148
  25   28918.4    345.8   0.046271089   0.52676  -0.23558  -0.27552  -0.62877
  26   27674.1    361.3   0.025512981   0.30350  -0.47972  -0.21132  -0.16946
  27   34748.0    287.8   0.168344369   1.59494  -1.09316  -0.43230   0.46157
  28   31918.0    313.3   0.069887477   0.72084  -0.08602  -0.40787   0.73965
  29   35482.1    281.8   0.067139846   0.62294  -0.33648   0.70964   0.07828
  30   30501.7    327.9   0.100271585   1.08226  -0.34394  -0.81036   0.55433
  31   31629.3    316.2   0.005059632   0.05266  -0.05326   0.20468   0.08907
  32   33859.6    295.3   0.014190264   0.13797   0.30137   0.08644  -0.19918
  33   27702.6    361.0   0.000481994   0.00573  -0.01065  -0.02444  -0.07083
  34   30950.1    323.1   0.001865770   0.01985   0.13946   0.00809  -0.01824
  35   25580.2    390.9   0.048329163   0.62199  -0.46110  -0.25862  -0.58522
  36   40552.7    246.6   0.001370019   0.01112   0.03204   0.02875   0.09628
  37   35932.8    278.3   0.059542354   0.54552  -0.23615   0.61024   0.34259
  38   34577.0    289.2   0.007702043   0.07333   0.21925  -0.12960   0.09202
  39   30850.5    324.1   0.065088359   0.69457   0.09476   0.48554  -0.67070
  40   37874.0    264.0   0.025672933   0.22316   0.32780  -0.25964   0.21974

FINAL SINGLE POINT ENERGY     -3587.062591761684

DIPOLE MOMENT
-------------
                                X             Y             Z
Electronic contribution:      1.32408      -4.04186       1.78933
Nuclear contribution   :     -3.36808      12.51579      -3.91256
                        -----------------------------------------
Total Dipole Moment    :     -2.04399       8.47393      -2.12322
                        -----------------------------------------
Magnitude (a.u.)       :      8.97182
Magnitude (Debye)      :     22.80455

Rotational constants in cm-1:     0.002342     0.001850     0.001765
Rotational constants in MHz :    70.207339    55.448862    52.928199

                             ****ORCA TERMINATED NORMALLY****
TOTAL RUN TIME: 0 days 3 hours 38 minutes 37 seconds 492 msec
